
  ___ ___ ___ _ _ _  
 |   |   |_  | | | | 
 | | | | | . | | | | 
 |__ |  _|___|_____|  1.4.0
 |___|_|             

User:   ???@93e7e28806d8
Date:   Fri Sep 14 16:12:13 2018
Arch:   x86_64
Pid:    1105
Python: 3.7.0
gpaw:   /app/gpaw/software/venv/lib/python3.7/site-packages/gpaw
_gpaw:  /app/gpaw/software/venv/lib/python3.7/site-packages/
        _gpaw.cpython-37m-x86_64-linux-gnu.so
ase:    /app/gpaw/software/venv/lib/python3.7/site-packages/ase (version 3.16.2)
numpy:  /app/gpaw/software/venv/lib/python3.7/site-packages/numpy (version 1.15.0)
scipy:  /app/gpaw/software/venv/lib/python3.7/site-packages/scipy (version 1.1.0)
units:  Angstrom and eV
cores:  1

Input parameters:
  basis: dzp
  eigensolver: cg
  gpts: [56 56 56]
  maxiter: 150
  mixer: {backend: pulay,
          beta: None,
          method: separate,
          nmaxold: None,
          weight: None}
  xc: M06-L

System changes: positions, numbers, cell, pbc, initial_charges, initial_magmoms 

Initialize ...

Hf-setup:
  name: Hafnium
  id: d03a45b6fa1dd7f07e443d1513edf499
  Z: 72
  valence: 12
  core: 60
  charge: 0.0
  file: /app/gpaw/datasets/Hf.PBE
  cutoffs: 1.30(comp), 2.36(filt), 4.02(core), lmax=2
  valence states:
                energy  radius
    5s(2.00)   -66.831   1.397
    6s(2.00)    -5.097   1.397
    5p(6.00)   -35.599   1.307
    6p(0.00)    -1.401   1.307
    5d(2.00)    -2.699   1.334
    *d          24.513   1.334

  LCAO basis set for Hf:
    Name: dzp
    File: /app/gpaw/datasets/Hf.dzp.basis
    Number of radial functions: 9
    Number of spherical harmonics: 27
      l=0, rc=3.5625 Bohr: 5s-sz confined orbital
      l=0, rc=9.5469 Bohr: 6s-sz confined orbital
      l=1, rc=4.3125 Bohr: 5p-sz confined orbital
      l=2, rc=8.5000 Bohr: 5d-sz confined orbital
      l=0, rc=2.2656 Bohr: 5s-dz split-valence wave
      l=0, rc=5.7812 Bohr: 6s-dz split-valence wave
      l=1, rc=2.6406 Bohr: 5p-dz split-valence wave
      l=2, rc=4.9844 Bohr: 5d-dz split-valence wave
      l=3, rc=8.5000 Bohr: f-type Gaussian polarization

N-setup:
  name: Nitrogen
  id: 45c8c9c739e7b131496b9fd2deb94bff
  Z: 7
  valence: 5
  core: 2
  charge: 0.0
  file: /app/gpaw/datasets/N.PBE
  cutoffs: 0.58(comp), 1.11(filt), 0.96(core), lmax=2
  valence states:
                energy  radius
    2s(2.00)   -18.583   0.603
    2p(3.00)    -7.089   0.529
    *s           8.629   0.603
    *p          20.123   0.529
    *d           0.000   0.577

  LCAO basis set for N:
    Name: dzp
    File: /app/gpaw/datasets/N.dzp.basis
    Number of radial functions: 5
    Number of spherical harmonics: 13
      l=0, rc=4.8594 Bohr: 2s-sz confined orbital
      l=1, rc=6.0625 Bohr: 2p-sz confined orbital
      l=0, rc=2.6094 Bohr: 2s-dz split-valence wave
      l=1, rc=3.2656 Bohr: 2p-dz split-valence wave
      l=2, rc=6.0625 Bohr: d-type Gaussian polarization

C-setup:
  name: Carbon
  id: 2f012631b351e3618121587a96c50fca
  Z: 6
  valence: 4
  core: 2
  charge: 0.0
  file: /app/gpaw/datasets/C.PBE
  cutoffs: 0.64(comp), 1.14(filt), 1.14(core), lmax=2
  valence states:
                energy  radius
    2s(2.00)   -13.751   0.635
    2p(2.00)    -5.285   0.635
    *s          13.461   0.635
    *p          21.927   0.635
    *d           0.000   0.635

  LCAO basis set for C:
    Name: dzp
    File: /app/gpaw/datasets/C.dzp.basis
    Number of radial functions: 5
    Number of spherical harmonics: 13
      l=0, rc=5.5938 Bohr: 2s-sz confined orbital
      l=1, rc=6.8750 Bohr: 2p-sz confined orbital
      l=0, rc=3.0938 Bohr: 2s-dz split-valence wave
      l=1, rc=3.8125 Bohr: 2p-dz split-valence wave
      l=2, rc=6.8750 Bohr: d-type Gaussian polarization

Reference energy: -412395.464894

Spin-paired calculation

Occupation numbers:
  Fermi-Dirac: width=0.0000 eV

Convergence criteria:
  Maximum total energy change: 0.0005 eV / electron
  Maximum integral of absolute density change: 0.0001 electrons
  Maximum integral of absolute eigenstate change: 4e-08 eV^2
  Maximum number of iterations: 150

Symmetries present (total): 1

  ( 1  0  0)
  ( 0  1  0)
  ( 0  0  1)

1 k-point (Gamma)
1 k-point in the irreducible part of the Brillouin zone
       k-points in crystal coordinates                weights
   0:     0.00000000    0.00000000    0.00000000          1/1

Wave functions: Uniform real-space grid
  Kinetic energy operator: 6*3+1=19 point O(h^6) finite-difference Laplacian
  ScaLapack parameters: grid=1x1, blocksize=None 

Eigensolver
   CG(niter=4, rtol=3.0e-01) 

Densities:
  Coarse grid: 56*56*56 grid
  Fine grid: 112*112*112 grid
  Total Charge: 0.000000 

Density mixing:
  Method: separate
  Backend: pulay
  Linear mixing parameter: 0.25
  Mixing with 3 old densities
  No damping of long wave oscillations 

Hamiltonian:
  XC and Coulomb potentials evaluated on a 112*112*112 grid
  Using the M06-L Exchange-Correlation functional
  Interpolation: tri-quintic (5. degree polynomial)
  Poisson solver: Jacobi solver with 5 multi-grid levels
    Coarsest grid: 7 x 7 x 7 points
    Stencil: 6*3+1=19 point O(h^6) finite-difference Laplacian
    Max iterations: 1000
    Tolerance: 2.000000e-10 

Memory estimate:
  Process memory now: 41.61 MiB
  Calculator: 198.44 MiB
    Density: 80.53 MiB
      Arrays: 33.84 MiB
      Localized functions: 39.07 MiB
      Mixer: 7.62 MiB
    Hamiltonian: 52.63 MiB
      Arrays: 22.14 MiB
      XC: 2.54 MiB
      Poisson: 25.33 MiB
      vbar: 2.62 MiB
    Wavefunctions: 65.28 MiB
      Arrays psit_nG: 26.66 MiB
      Eigensolver: 33.00 MiB
      Projections: 0.01 MiB
      Projectors: 5.61 MiB

Total number of cores used: 1

Number of atoms: 3
Number of atomic orbitals: 53
Number of bands in calculation: 21
Bands to converge: occupied states only
Number of valence electrons: 21

... initialized

Initializing position-dependent things.

Density initialized from atomic densities
Creating initial wave functions:
  21 bands from LCAO basis set

     .---------------.  
    /|               |  
   / |               |  
  /  |               |  
 *   |               |  
 |   |               |  
 |   | N   Hf  C     |  
 |   |               |  
 |   .---------------.  
 |  /               /   
 | /               /    
 |/               /     
 *---------------*      

Positions:
   0 Hf     3.155000    3.425000    3.250000    ( 0.0000,  0.0000,  0.0000)
   1 N      1.495000    3.075000    3.250000    ( 0.0000,  0.0000,  0.0000)
   2 C      5.005000    3.075000    3.250000    ( 0.0000,  0.0000,  0.0000)

Unit cell:
           periodic     x           y           z      points  spacing
  1. axis:    no     6.500000    0.000000    0.000000    56     0.1161
  2. axis:    no     0.000000    6.500000    0.000000    56     0.1161
  3. axis:    no     0.000000    0.000000    6.500000    56     0.1161

  Lengths:   6.500000   6.500000   6.500000
  Angles:   90.000000  90.000000  90.000000

Effective grid spacing dv^(1/3) = 0.1161

                     log10-error:    total        iterations:
           time      wfs    density  energy       fermi  poisson
iter:   1  16:12:44  +3.43   +inf  -522.585445    0      13     
iter:   2  16:12:47  +3.84   +inf  -980.402839    0             
iter:   3  16:12:50  +4.13   +inf  -1338.533019    0             
iter:   4  16:13:13  +3.66  +0.02    67.464722    0      14     
iter:   5  16:13:35  +3.73  -0.19    26.837183    0      12     
iter:   6  16:13:58  +2.99  -0.38     2.176813    0      12     
iter:   7  16:14:21  +2.40  -0.56   -48.777761    0      13     
iter:   8  16:14:43  +5.43  -0.36  -1870.234909    0      11     
iter:   9  16:15:06  +3.34  -0.35   238.581403    0      10     
iter:  10  16:15:29  +3.21  -0.21    59.219866    0      10     
iter:  11  16:15:51  +2.99  -0.57    -4.484403    0      10     
iter:  12  16:16:12  +2.37  -0.56   -19.328319    0      9      
iter:  13  16:16:34  +1.70  -0.56   -22.355161    0      9      
iter:  14  16:16:56  +1.51  -0.59   -14.905244    0      10     
iter:  15  16:17:18  +1.10  -0.82   -17.871151    0      9      
iter:  16  16:17:40  +0.29  -0.96   -17.438667    0      9      
iter:  17  16:18:03  -0.06  -1.09   -17.903716    0      9      
iter:  18  16:18:25  +0.75  -1.20   -18.038465    0      9      
iter:  19  16:18:46  +0.12  -1.22   -18.074538    0      9      
iter:  20  16:19:08  -0.15  -1.56   -18.232119    0      8      
iter:  21  16:19:29  -0.75  -1.77   -18.267590    0      7      
iter:  22  16:19:51  -1.35  -1.95   -18.273652    0      7      
iter:  23  16:20:11  -1.91  -2.35   -18.279439    0      5      
iter:  24  16:20:32  -2.40  -2.49   -18.281147    0      4      
iter:  25  16:20:52  -2.36  -2.56   -18.282505    0      5      
iter:  26  16:21:12  -2.80  -3.06   -18.282851    0      3      
iter:  27  16:21:33  -3.22  -3.12   -18.283152    0      4      
iter:  28  16:21:53  -3.15  -3.34   -18.283407    0      4      
iter:  29  16:22:13  -3.86  -3.77   -18.283446    0      2      
iter:  30  16:22:33  -4.54  -3.84   -18.283485    0      2      
iter:  31  16:22:53  -4.62  -3.88   -18.283508    0      2      
iter:  32  16:23:13  -4.08  -4.03   -18.283518    0      3      
iter:  33  16:23:32  -4.30  -4.43   -18.283506    0      1      
iter:  34  16:23:52  -5.04  -4.47   -18.283521    0      2      
iter:  35  16:24:12  -4.84  -4.56   -18.283530    0      2      
iter:  36  16:24:31  -5.01  -4.86   -18.283530    0      1      
iter:  37  16:24:51  -5.24  -4.91   -18.283543    0      1      
iter:  38  16:25:10  -5.49  -4.96   -18.283552    0      1      
iter:  39  16:25:30  -6.04  -5.07   -18.283549    0      1      
iter:  40  16:25:49  -6.76  -5.06   -18.283539    0      1      
iter:  41  16:26:08  -7.11  -5.01   -18.283527    0      1      
iter:  42  16:26:28  -7.21  -4.82   -18.283545    0      1      
iter:  43  16:26:47  -6.23  -5.00   -18.283545    0      1      
iter:  44  16:27:06  -6.95  -5.38   -18.283535    0      1      
iter:  45  16:27:25  -7.23  -5.61   -18.283531    0      1      
iter:  46  16:27:44  -8.05  -5.62   -18.283531    0      1      

Converged after 46 iterations.

Dipole moment: (0.140293, 0.846908, -0.000000) |e|*Ang

Energy contributions relative to reference atoms: (reference = -412395.464894)

Kinetic:        +31.809086
Potential:      -21.149752
External:        +0.000000
XC:             -29.019119
Entropy (-ST):   +0.000000
Local:           +0.076254
--------------------------
Free energy:    -18.283531
Extrapolated:   -18.283531

Fermi level: -3.75047

 Band  Eigenvalues  Occupancy
    0    -66.60397    2.00000
    1    -35.53547    2.00000
    2    -35.27705    2.00000
    3    -35.25666    2.00000
    4    -16.79141    2.00000
    5    -12.08914    2.00000
    6     -6.19506    2.00000
    7     -6.15499    2.00000
    8     -5.28575    2.00000
    9     -3.91014    2.00000
   10     -3.75047    1.00000
   11     -2.34503    0.00000
   12     -1.23573    0.00000
   13     -1.13588    0.00000
   14     -1.05392    0.00000
   15      2.77026    0.00000
   16      2.82420    0.00000
   17      2.96135    0.00000
   18      6.69758    0.00000
   19      6.73783    0.00000
   20      7.58577    0.00000

Writing to 3_27462_Pm_M06-L_R33_1536941533.gpw (mode='all')

Timing:                              incl.     excl.
-----------------------------------------------------------
Hamiltonian:                        21.054     0.000   0.0% |
 Atomic:                             2.843     0.001   0.0% |
  XC Correction:                     2.842     2.842   0.3% |
 Calculate atomic Hamiltonians:      0.010     0.010   0.0% |
 Communicate:                        0.000     0.000   0.0% |
 Hartree integrate/restrict:         0.021     0.021   0.0% |
 Initialize Hamiltonian:             0.000     0.000   0.0% |
 Poisson:                            3.068     3.068   0.3% |
 XC 3D grid:                        15.105    15.105   1.6% ||
 vbar:                               0.007     0.007   0.0% |
LCAO initialization:                 3.766     2.487   0.3% |
 LCAO eigensolver:                   0.147     0.000   0.0% |
  Calculate projections:             0.000     0.000   0.0% |
  DenseAtomicCorrection:             0.000     0.000   0.0% |
  Distribute overlap matrix:         0.000     0.000   0.0% |
  Orbital Layouts:                   0.001     0.001   0.0% |
  Potential matrix:                  0.145     0.145   0.0% |
 LCAO to grid:                       0.259     0.259   0.0% |
 Set positions (LCAO WFS):           0.873     0.000   0.0% |
  Basic WFS set positions:           0.000     0.000   0.0% |
  Basis functions set positions:     0.000     0.000   0.0% |
  TCI: Calculate S, T, P:            0.872     0.872   0.1% |
SCF-cycle:                         905.501     0.033   0.0% |
 CG:                               114.575    31.258   3.4% ||
  Apply hamiltonian:                34.339    34.339   3.7% ||
  CG: orthonormalize:               17.641     9.280   1.0% |
   CG: overlap:                      8.184     8.184   0.9% |
   CG: overlap2:                     0.177     0.177   0.0% |
  Subspace diag:                    31.336     0.004   0.0% |
   calc_h_matrix:                   22.374     4.355   0.5% |
    Apply hamiltonian:              18.019    18.019   1.9% ||
   diagonalize:                      0.011     0.011   0.0% |
   rotate_psi:                       8.947     8.947   1.0% |
 Density:                            2.221     0.001   0.0% |
  Atomic density matrices:           0.030     0.030   0.0% |
  Mix:                               1.604     1.604   0.2% |
  Multipole moments:                 0.008     0.008   0.0% |
  Pseudo density:                    0.579     0.578   0.1% |
   Symmetrize density:               0.001     0.001   0.0% |
 Hamiltonian:                      788.474     0.005   0.0% |
  Atomic:                           73.338     0.041   0.0% |
   XC Correction:                   73.297    73.297   7.9% |--|
  Calculate atomic Hamiltonians:     0.434     0.434   0.0% |
  Communicate:                       0.000     0.000   0.0% |
  Hartree integrate/restrict:        0.927     0.927   0.1% |
  Poisson:                          58.116    58.116   6.2% |-|
  XC 3D grid:                      655.461   655.461  70.4% |---------------------------|
  vbar:                              0.192     0.192   0.0% |
 Orthonormalize:                     0.199     0.000   0.0% |
  calc_s_matrix:                     0.068     0.068   0.0% |
  inverse-cholesky:                  0.000     0.000   0.0% |
  projections:                       0.037     0.037   0.0% |
  rotate_psi_s:                      0.094     0.094   0.0% |
Set symmetry:                        0.001     0.001   0.0% |
Other:                               1.310     1.310   0.1% |
-----------------------------------------------------------
Total:                                       931.632 100.0%

Memory usage: 540.65 MiB
Date: Fri Sep 14 16:27:44 2018
