
  ___ ___ ___ _ _ _  
 |   |   |_  | | | | 
 | | | | | . | | | | 
 |__ |  _|___|_____|  1.4.0
 |___|_|             

User:   ???@93e7e28806d8
Date:   Fri Sep 14 18:16:44 2018
Arch:   x86_64
Pid:    4032
Python: 3.7.0
gpaw:   /app/gpaw/software/venv/lib/python3.7/site-packages/gpaw
_gpaw:  /app/gpaw/software/venv/lib/python3.7/site-packages/
        _gpaw.cpython-37m-x86_64-linux-gnu.so
ase:    /app/gpaw/software/venv/lib/python3.7/site-packages/ase (version 3.16.2)
numpy:  /app/gpaw/software/venv/lib/python3.7/site-packages/numpy (version 1.15.0)
scipy:  /app/gpaw/software/venv/lib/python3.7/site-packages/scipy (version 1.1.0)
units:  Angstrom and eV
cores:  1

Input parameters:
  basis: dzp
  eigensolver: cg
  gpts: [56 56 56]
  maxiter: 150
  mixer: {backend: pulay,
          beta: None,
          method: separate,
          nmaxold: None,
          weight: None}
  xc: M06-L

System changes: positions, numbers, cell, pbc, initial_charges, initial_magmoms 

Initialize ...

Hf-setup:
  name: Hafnium
  id: d03a45b6fa1dd7f07e443d1513edf499
  Z: 72
  valence: 12
  core: 60
  charge: 0.0
  file: /app/gpaw/datasets/Hf.PBE
  cutoffs: 1.30(comp), 2.36(filt), 4.02(core), lmax=2
  valence states:
                energy  radius
    5s(2.00)   -66.831   1.397
    6s(2.00)    -5.097   1.397
    5p(6.00)   -35.599   1.307
    6p(0.00)    -1.401   1.307
    5d(2.00)    -2.699   1.334
    *d          24.513   1.334

  LCAO basis set for Hf:
    Name: dzp
    File: /app/gpaw/datasets/Hf.dzp.basis
    Number of radial functions: 9
    Number of spherical harmonics: 27
      l=0, rc=3.5625 Bohr: 5s-sz confined orbital
      l=0, rc=9.5469 Bohr: 6s-sz confined orbital
      l=1, rc=4.3125 Bohr: 5p-sz confined orbital
      l=2, rc=8.5000 Bohr: 5d-sz confined orbital
      l=0, rc=2.2656 Bohr: 5s-dz split-valence wave
      l=0, rc=5.7812 Bohr: 6s-dz split-valence wave
      l=1, rc=2.6406 Bohr: 5p-dz split-valence wave
      l=2, rc=4.9844 Bohr: 5d-dz split-valence wave
      l=3, rc=8.5000 Bohr: f-type Gaussian polarization

N-setup:
  name: Nitrogen
  id: 45c8c9c739e7b131496b9fd2deb94bff
  Z: 7
  valence: 5
  core: 2
  charge: 0.0
  file: /app/gpaw/datasets/N.PBE
  cutoffs: 0.58(comp), 1.11(filt), 0.96(core), lmax=2
  valence states:
                energy  radius
    2s(2.00)   -18.583   0.603
    2p(3.00)    -7.089   0.529
    *s           8.629   0.603
    *p          20.123   0.529
    *d           0.000   0.577

  LCAO basis set for N:
    Name: dzp
    File: /app/gpaw/datasets/N.dzp.basis
    Number of radial functions: 5
    Number of spherical harmonics: 13
      l=0, rc=4.8594 Bohr: 2s-sz confined orbital
      l=1, rc=6.0625 Bohr: 2p-sz confined orbital
      l=0, rc=2.6094 Bohr: 2s-dz split-valence wave
      l=1, rc=3.2656 Bohr: 2p-dz split-valence wave
      l=2, rc=6.0625 Bohr: d-type Gaussian polarization

C-setup:
  name: Carbon
  id: 2f012631b351e3618121587a96c50fca
  Z: 6
  valence: 4
  core: 2
  charge: 0.0
  file: /app/gpaw/datasets/C.PBE
  cutoffs: 0.64(comp), 1.14(filt), 1.14(core), lmax=2
  valence states:
                energy  radius
    2s(2.00)   -13.751   0.635
    2p(2.00)    -5.285   0.635
    *s          13.461   0.635
    *p          21.927   0.635
    *d           0.000   0.635

  LCAO basis set for C:
    Name: dzp
    File: /app/gpaw/datasets/C.dzp.basis
    Number of radial functions: 5
    Number of spherical harmonics: 13
      l=0, rc=5.5938 Bohr: 2s-sz confined orbital
      l=1, rc=6.8750 Bohr: 2p-sz confined orbital
      l=0, rc=3.0938 Bohr: 2s-dz split-valence wave
      l=1, rc=3.8125 Bohr: 2p-dz split-valence wave
      l=2, rc=6.8750 Bohr: d-type Gaussian polarization

Reference energy: -412395.464894

Spin-paired calculation

Occupation numbers:
  Fermi-Dirac: width=0.0000 eV

Convergence criteria:
  Maximum total energy change: 0.0005 eV / electron
  Maximum integral of absolute density change: 0.0001 electrons
  Maximum integral of absolute eigenstate change: 4e-08 eV^2
  Maximum number of iterations: 150

Symmetries present (total): 1

  ( 1  0  0)
  ( 0  1  0)
  ( 0  0  1)

1 k-point (Gamma)
1 k-point in the irreducible part of the Brillouin zone
       k-points in crystal coordinates                weights
   0:     0.00000000    0.00000000    0.00000000          1/1

Wave functions: Uniform real-space grid
  Kinetic energy operator: 6*3+1=19 point O(h^6) finite-difference Laplacian
  ScaLapack parameters: grid=1x1, blocksize=None 

Eigensolver
   CG(niter=4, rtol=3.0e-01) 

Densities:
  Coarse grid: 56*56*56 grid
  Fine grid: 112*112*112 grid
  Total Charge: 0.000000 

Density mixing:
  Method: separate
  Backend: pulay
  Linear mixing parameter: 0.25
  Mixing with 3 old densities
  No damping of long wave oscillations 

Hamiltonian:
  XC and Coulomb potentials evaluated on a 112*112*112 grid
  Using the M06-L Exchange-Correlation functional
  Interpolation: tri-quintic (5. degree polynomial)
  Poisson solver: Jacobi solver with 5 multi-grid levels
    Coarsest grid: 7 x 7 x 7 points
    Stencil: 6*3+1=19 point O(h^6) finite-difference Laplacian
    Max iterations: 1000
    Tolerance: 2.000000e-10 

Memory estimate:
  Process memory now: 41.62 MiB
  Calculator: 198.44 MiB
    Density: 80.53 MiB
      Arrays: 33.84 MiB
      Localized functions: 39.07 MiB
      Mixer: 7.62 MiB
    Hamiltonian: 52.63 MiB
      Arrays: 22.14 MiB
      XC: 2.54 MiB
      Poisson: 25.33 MiB
      vbar: 2.62 MiB
    Wavefunctions: 65.28 MiB
      Arrays psit_nG: 26.66 MiB
      Eigensolver: 33.00 MiB
      Projections: 0.01 MiB
      Projectors: 5.61 MiB

Total number of cores used: 1

Number of atoms: 3
Number of atomic orbitals: 53
Number of bands in calculation: 21
Bands to converge: occupied states only
Number of valence electrons: 21

... initialized

Initializing position-dependent things.

Density initialized from atomic densities
Creating initial wave functions:
  21 bands from LCAO basis set

     .---------------.  
    /|               |  
   / |               |  
  /  |               |  
 *   |               |  
 |   |               |  
 |   | N   Hf  C     |  
 |   |               |  
 |   .---------------.  
 |  /               /   
 | /               /    
 |/               /     
 *---------------*      

Positions:
   0 Hf     3.190000    3.625000    3.250000    ( 0.0000,  0.0000,  0.0000)
   1 N      1.580000    2.875000    3.250000    ( 0.0000,  0.0000,  0.0000)
   2 C      4.920000    2.875000    3.250000    ( 0.0000,  0.0000,  0.0000)

Unit cell:
           periodic     x           y           z      points  spacing
  1. axis:    no     6.500000    0.000000    0.000000    56     0.1161
  2. axis:    no     0.000000    6.500000    0.000000    56     0.1161
  3. axis:    no     0.000000    0.000000    6.500000    56     0.1161

  Lengths:   6.500000   6.500000   6.500000
  Angles:   90.000000  90.000000  90.000000

Effective grid spacing dv^(1/3) = 0.1161

                     log10-error:    total        iterations:
           time      wfs    density  energy       fermi  poisson
iter:   1  18:17:14  +3.47   +inf  -519.650853    0      13     
iter:   2  18:17:17  +3.78   +inf  -973.873622    0             
iter:   3  18:17:20  +3.83   +inf  -1329.387911    0             
iter:   4  18:17:42  +3.43  +0.01   -30.383936    0      14     
iter:   5  18:18:03  +3.31  -0.11    16.340355    0      12     
iter:   6  18:18:25  +2.71  -0.38   -11.659500    0      11     
iter:   7  18:18:46  +2.59  -0.43   -34.822733    0      12     
iter:   8  18:19:08  +1.75  -0.47   -18.253931    0      11     
iter:   9  18:19:29  +1.09  -0.67   -19.060370    0      11     
iter:  10  18:19:49  +0.66  -0.91   -18.968382    0      8      
iter:  11  18:20:10  +0.14  -1.00   -18.997157    0      8      
iter:  12  18:20:31  -0.01  -1.15   -19.248639    0      8      
iter:  13  18:20:51  -0.32  -1.39   -19.400116    0      8      
iter:  14  18:21:12  -0.28  -1.64   -19.413527    0      7      
iter:  15  18:21:32  -0.78  -1.81   -19.441068    0      7      
iter:  16  18:21:52  -1.29  -2.18   -19.450430    0      6      
iter:  17  18:22:12  -1.89  -2.30   -19.454641    0      5      
iter:  18  18:22:32  -2.06  -2.31   -19.457705    0      5      
iter:  19  18:22:52  -2.42  -2.58   -19.459169    0      4      
iter:  20  18:23:12  -2.46  -2.68   -19.461558    0      5      
iter:  21  18:23:31  -2.85  -3.11   -19.462075    0      4      
iter:  22  18:23:51  -3.32  -3.23   -19.462130    0      4      
iter:  23  18:24:11  -3.48  -3.18   -19.462351    0      4      
iter:  24  18:24:30  -3.54  -3.44   -19.462436    0      3      
iter:  25  18:24:49  -3.77  -3.65   -19.462479    0      3      
iter:  26  18:25:09  -4.08  -3.72   -19.462514    0      3      
iter:  27  18:25:28  -4.27  -3.90   -19.462533    0      3      
iter:  28  18:25:47  -4.41  -4.08   -19.462547    0      2      
iter:  29  18:26:06  -4.54  -4.19   -19.462564    0      2      
iter:  30  18:26:25  -4.84  -4.40   -19.462569    0      2      
iter:  31  18:26:45  -5.19  -4.45   -19.462579    0      2      
iter:  32  18:27:04  -5.47  -4.61   -19.462591    0      1      
iter:  33  18:27:23  -6.22  -4.78   -19.462565    0      1      
iter:  34  18:27:41  -7.10  -4.76   -19.462572    0      1      
iter:  35  18:28:00  -7.22  -4.86   -19.462565    0      1      
iter:  36  18:28:19  -7.46  -5.13   -19.462558    0      1      

Converged after 36 iterations.

Dipole moment: (0.274141, 1.175034, -0.000000) |e|*Ang

Energy contributions relative to reference atoms: (reference = -412395.464894)

Kinetic:        +19.234105
Potential:      -11.474002
External:        +0.000000
XC:             -27.238018
Entropy (-ST):   +0.000000
Local:           +0.015357
--------------------------
Free energy:    -19.462558
Extrapolated:   -19.462558

Fermi level: -3.80882

 Band  Eigenvalues  Occupancy
    0    -66.31401    2.00000
    1    -35.05553    2.00000
    2    -34.99219    2.00000
    3    -34.96081    2.00000
    4    -16.57946    2.00000
    5    -12.48854    2.00000
    6     -5.65597    2.00000
    7     -5.64876    2.00000
    8     -5.30816    2.00000
    9     -4.30429    2.00000
   10     -3.80882    1.00000
   11     -2.68429    0.00000
   12     -1.82251    0.00000
   13     -0.17131    0.00000
   14      0.33935    0.00000
   15      2.22075    0.00000
   16      3.07107    0.00000
   17      4.36891    0.00000
   18      5.04096    0.00000
   19      6.25536    0.00000
   20      7.42955    0.00000

Writing to 3_27462_Pm_M06-L_R48_1536949004.gpw (mode='all')

Timing:                              incl.     excl.
-----------------------------------------------------------
Hamiltonian:                        20.539     0.000   0.0% |
 Atomic:                             2.779     0.001   0.0% |
  XC Correction:                     2.778     2.778   0.4% |
 Calculate atomic Hamiltonians:      0.009     0.009   0.0% |
 Communicate:                        0.000     0.000   0.0% |
 Hartree integrate/restrict:         0.019     0.019   0.0% |
 Initialize Hamiltonian:             0.000     0.000   0.0% |
 Poisson:                            2.972     2.972   0.4% |
 XC 3D grid:                        14.752    14.752   2.1% ||
 vbar:                               0.006     0.006   0.0% |
LCAO initialization:                 3.592     2.383   0.3% |
 LCAO eigensolver:                   0.142     0.000   0.0% |
  Calculate projections:             0.000     0.000   0.0% |
  DenseAtomicCorrection:             0.000     0.000   0.0% |
  Distribute overlap matrix:         0.000     0.000   0.0% |
  Orbital Layouts:                   0.001     0.001   0.0% |
  Potential matrix:                  0.140     0.140   0.0% |
 LCAO to grid:                       0.244     0.244   0.0% |
 Set positions (LCAO WFS):           0.823     0.000   0.0% |
  Basic WFS set positions:           0.000     0.000   0.0% |
  Basis functions set positions:     0.000     0.000   0.0% |
  TCI: Calculate S, T, P:            0.823     0.823   0.1% |
SCF-cycle:                         669.062     0.024   0.0% |
 CG:                                81.838    22.881   3.3% ||
  Apply hamiltonian:                25.253    25.253   3.6% ||
  CG: orthonormalize:               12.291     6.523   0.9% |
   CG: overlap:                      5.628     5.628   0.8% |
   CG: overlap2:                     0.139     0.139   0.0% |
  Subspace diag:                    21.413     0.003   0.0% |
   calc_h_matrix:                   15.480     2.707   0.4% |
    Apply hamiltonian:              12.773    12.773   1.8% ||
   diagonalize:                      0.009     0.009   0.0% |
   rotate_psi:                       5.922     5.922   0.9% |
 Density:                            1.558     0.001   0.0% |
  Atomic density matrices:           0.023     0.023   0.0% |
  Mix:                               1.133     1.133   0.2% |
  Multipole moments:                 0.006     0.006   0.0% |
  Pseudo density:                    0.395     0.395   0.1% |
   Symmetrize density:               0.001     0.001   0.0% |
 Hamiltonian:                      585.505     0.004   0.0% |
  Atomic:                           54.559     0.031   0.0% |
   XC Correction:                   54.528    54.528   7.9% |--|
  Calculate atomic Hamiltonians:     0.335     0.335   0.0% |
  Communicate:                       0.000     0.000   0.0% |
  Hartree integrate/restrict:        0.685     0.685   0.1% |
  Poisson:                          42.965    42.965   6.2% |-|
  XC 3D grid:                      486.835   486.835  70.1% |---------------------------|
  vbar:                              0.123     0.123   0.0% |
 Orthonormalize:                     0.137     0.000   0.0% |
  calc_s_matrix:                     0.046     0.046   0.0% |
  inverse-cholesky:                  0.000     0.000   0.0% |
  projections:                       0.032     0.032   0.0% |
  rotate_psi_s:                      0.058     0.058   0.0% |
Set symmetry:                        0.001     0.001   0.0% |
Other:                               1.255     1.255   0.2% |
-----------------------------------------------------------
Total:                                       694.449 100.0%

Memory usage: 540.91 MiB
Date: Fri Sep 14 18:28:19 2018
