
  ___ ___ ___ _ _ _  
 |   |   |_  | | | | 
 | | | | | . | | | | 
 |__ |  _|___|_____|  1.4.0
 |___|_|             

User:   ???@93e7e28806d8
Date:   Fri Sep 14 17:16:09 2018
Arch:   x86_64
Pid:    2273
Python: 3.7.0
gpaw:   /app/gpaw/software/venv/lib/python3.7/site-packages/gpaw
_gpaw:  /app/gpaw/software/venv/lib/python3.7/site-packages/
        _gpaw.cpython-37m-x86_64-linux-gnu.so
ase:    /app/gpaw/software/venv/lib/python3.7/site-packages/ase (version 3.16.2)
numpy:  /app/gpaw/software/venv/lib/python3.7/site-packages/numpy (version 1.15.0)
scipy:  /app/gpaw/software/venv/lib/python3.7/site-packages/scipy (version 1.1.0)
units:  Angstrom and eV
cores:  1

Input parameters:
  basis: dzp
  eigensolver: cg
  gpts: [56 56 56]
  maxiter: 150
  mixer: {backend: pulay,
          beta: None,
          method: separate,
          nmaxold: None,
          weight: None}
  xc: M06-L

System changes: positions, numbers, cell, pbc, initial_charges, initial_magmoms 

Initialize ...

Hf-setup:
  name: Hafnium
  id: d03a45b6fa1dd7f07e443d1513edf499
  Z: 72
  valence: 12
  core: 60
  charge: 0.0
  file: /app/gpaw/datasets/Hf.PBE
  cutoffs: 1.30(comp), 2.36(filt), 4.02(core), lmax=2
  valence states:
                energy  radius
    5s(2.00)   -66.831   1.397
    6s(2.00)    -5.097   1.397
    5p(6.00)   -35.599   1.307
    6p(0.00)    -1.401   1.307
    5d(2.00)    -2.699   1.334
    *d          24.513   1.334

  LCAO basis set for Hf:
    Name: dzp
    File: /app/gpaw/datasets/Hf.dzp.basis
    Number of radial functions: 9
    Number of spherical harmonics: 27
      l=0, rc=3.5625 Bohr: 5s-sz confined orbital
      l=0, rc=9.5469 Bohr: 6s-sz confined orbital
      l=1, rc=4.3125 Bohr: 5p-sz confined orbital
      l=2, rc=8.5000 Bohr: 5d-sz confined orbital
      l=0, rc=2.2656 Bohr: 5s-dz split-valence wave
      l=0, rc=5.7812 Bohr: 6s-dz split-valence wave
      l=1, rc=2.6406 Bohr: 5p-dz split-valence wave
      l=2, rc=4.9844 Bohr: 5d-dz split-valence wave
      l=3, rc=8.5000 Bohr: f-type Gaussian polarization

N-setup:
  name: Nitrogen
  id: 45c8c9c739e7b131496b9fd2deb94bff
  Z: 7
  valence: 5
  core: 2
  charge: 0.0
  file: /app/gpaw/datasets/N.PBE
  cutoffs: 0.58(comp), 1.11(filt), 0.96(core), lmax=2
  valence states:
                energy  radius
    2s(2.00)   -18.583   0.603
    2p(3.00)    -7.089   0.529
    *s           8.629   0.603
    *p          20.123   0.529
    *d           0.000   0.577

  LCAO basis set for N:
    Name: dzp
    File: /app/gpaw/datasets/N.dzp.basis
    Number of radial functions: 5
    Number of spherical harmonics: 13
      l=0, rc=4.8594 Bohr: 2s-sz confined orbital
      l=1, rc=6.0625 Bohr: 2p-sz confined orbital
      l=0, rc=2.6094 Bohr: 2s-dz split-valence wave
      l=1, rc=3.2656 Bohr: 2p-dz split-valence wave
      l=2, rc=6.0625 Bohr: d-type Gaussian polarization

C-setup:
  name: Carbon
  id: 2f012631b351e3618121587a96c50fca
  Z: 6
  valence: 4
  core: 2
  charge: 0.0
  file: /app/gpaw/datasets/C.PBE
  cutoffs: 0.64(comp), 1.14(filt), 1.14(core), lmax=2
  valence states:
                energy  radius
    2s(2.00)   -13.751   0.635
    2p(2.00)    -5.285   0.635
    *s          13.461   0.635
    *p          21.927   0.635
    *d           0.000   0.635

  LCAO basis set for C:
    Name: dzp
    File: /app/gpaw/datasets/C.dzp.basis
    Number of radial functions: 5
    Number of spherical harmonics: 13
      l=0, rc=5.5938 Bohr: 2s-sz confined orbital
      l=1, rc=6.8750 Bohr: 2p-sz confined orbital
      l=0, rc=3.0938 Bohr: 2s-dz split-valence wave
      l=1, rc=3.8125 Bohr: 2p-dz split-valence wave
      l=2, rc=6.8750 Bohr: d-type Gaussian polarization

Reference energy: -412395.464894

Spin-paired calculation

Occupation numbers:
  Fermi-Dirac: width=0.0000 eV

Convergence criteria:
  Maximum total energy change: 0.0005 eV / electron
  Maximum integral of absolute density change: 0.0001 electrons
  Maximum integral of absolute eigenstate change: 4e-08 eV^2
  Maximum number of iterations: 150

Symmetries present (total): 1

  ( 1  0  0)
  ( 0  1  0)
  ( 0  0  1)

1 k-point (Gamma)
1 k-point in the irreducible part of the Brillouin zone
       k-points in crystal coordinates                weights
   0:     0.00000000    0.00000000    0.00000000          1/1

Wave functions: Uniform real-space grid
  Kinetic energy operator: 6*3+1=19 point O(h^6) finite-difference Laplacian
  ScaLapack parameters: grid=1x1, blocksize=None 

Eigensolver
   CG(niter=4, rtol=3.0e-01) 

Densities:
  Coarse grid: 56*56*56 grid
  Fine grid: 112*112*112 grid
  Total Charge: 0.000000 

Density mixing:
  Method: separate
  Backend: pulay
  Linear mixing parameter: 0.25
  Mixing with 3 old densities
  No damping of long wave oscillations 

Hamiltonian:
  XC and Coulomb potentials evaluated on a 112*112*112 grid
  Using the M06-L Exchange-Correlation functional
  Interpolation: tri-quintic (5. degree polynomial)
  Poisson solver: Jacobi solver with 5 multi-grid levels
    Coarsest grid: 7 x 7 x 7 points
    Stencil: 6*3+1=19 point O(h^6) finite-difference Laplacian
    Max iterations: 1000
    Tolerance: 2.000000e-10 

Memory estimate:
  Process memory now: 41.73 MiB
  Calculator: 198.44 MiB
    Density: 80.53 MiB
      Arrays: 33.84 MiB
      Localized functions: 39.07 MiB
      Mixer: 7.62 MiB
    Hamiltonian: 52.63 MiB
      Arrays: 22.14 MiB
      XC: 2.54 MiB
      Poisson: 25.33 MiB
      vbar: 2.62 MiB
    Wavefunctions: 65.28 MiB
      Arrays psit_nG: 26.66 MiB
      Eigensolver: 33.00 MiB
      Projections: 0.01 MiB
      Projectors: 5.61 MiB

Total number of cores used: 1

Number of atoms: 3
Number of atomic orbitals: 53
Number of bands in calculation: 21
Bands to converge: occupied states only
Number of valence electrons: 21

... initialized

Initializing position-dependent things.

Density initialized from atomic densities
Creating initial wave functions:
  21 bands from LCAO basis set

     .---------------.  
    /|               |  
   / |               |  
  /  |               |  
 *   |               |  
 |   |               |  
 |   | N   Hf  C     |  
 |   |               |  
 |   .---------------.  
 |  /               /   
 | /               /    
 |/               /     
 *---------------*      

Positions:
   0 Hf     3.190000    3.550000    3.250000    ( 0.0000,  0.0000,  0.0000)
   1 N      1.560000    2.950000    3.250000    ( 0.0000,  0.0000,  0.0000)
   2 C      4.940000    2.950000    3.250000    ( 0.0000,  0.0000,  0.0000)

Unit cell:
           periodic     x           y           z      points  spacing
  1. axis:    no     6.500000    0.000000    0.000000    56     0.1161
  2. axis:    no     0.000000    6.500000    0.000000    56     0.1161
  3. axis:    no     0.000000    0.000000    6.500000    56     0.1161

  Lengths:   6.500000   6.500000   6.500000
  Angles:   90.000000  90.000000  90.000000

Effective grid spacing dv^(1/3) = 0.1161

                     log10-error:    total        iterations:
           time      wfs    density  energy       fermi  poisson
iter:   1  17:16:40  +3.50   +inf  -615.869642    0      13     
iter:   2  17:16:43  +4.17   +inf  -1635.772791    0             
iter:   3  17:16:46  +3.61   +inf  -2253.710192    0             
iter:   4  17:17:09  +3.84  +0.07  -127.783264    0      14     
iter:   5  17:17:31  +3.34  -0.18   -40.702928    0      12     
iter:   6  17:17:55  +2.83  -0.35   -43.257043    0      12     
iter:   7  17:18:18  +2.67  -0.38   -83.194744    0      13     
iter:   8  17:18:41  +4.93  -0.23  -898.462268    0      9      
iter:   9  17:19:03  +3.65  -0.23   156.847719    0      11     
iter:  10  17:19:26  +3.11  -0.42    25.274848    0      10     
iter:  11  17:19:47  +2.96  -0.44   -29.592406    0      9      
iter:  12  17:20:08  +1.76  -0.36   -30.253389    0      9      
iter:  13  17:20:30  +1.53  -0.39   -19.356050    0      10     
iter:  14  17:20:52  +1.79  -0.53   -14.547358    0      10     
iter:  15  17:21:13  +1.40  -0.84   -16.596784    0      9      
iter:  16  17:21:35  +0.91  -0.99   -18.098389    0      8      
iter:  17  17:21:56  +0.30  -1.07   -18.691113    0      8      
iter:  18  17:22:17  -0.07  -1.16   -18.985546    0      8      
iter:  19  17:22:38  -0.07  -1.25   -19.211078    0      9      
iter:  20  17:22:58  -0.70  -1.66   -19.175157    0      6      
iter:  21  17:23:18  -1.11  -1.87   -19.172298    0      7      
iter:  22  17:23:38  -1.75  -2.34   -19.176660    0      5      
iter:  23  17:23:58  -2.20  -2.45   -19.177635    0      4      
iter:  24  17:24:18  -2.44  -2.57   -19.179133    0      5      
iter:  25  17:24:37  -2.90  -2.85   -19.179796    0      4      
iter:  26  17:24:57  -3.11  -3.04   -19.180270    0      4      
iter:  27  17:25:16  -3.32  -3.25   -19.180694    0      3      
iter:  28  17:25:35  -3.48  -3.42   -19.180810    0      3      
iter:  29  17:25:54  -3.64  -3.66   -19.180891    0      3      
iter:  30  17:26:13  -4.00  -3.95   -19.180935    0      2      
iter:  31  17:26:32  -4.45  -4.00   -19.181041    0      2      
iter:  32  17:26:51  -4.32  -4.18   -19.181012    0      2      
iter:  33  17:27:10  -4.48  -4.41   -19.180908    0      2      
iter:  34  17:27:29  -4.77  -4.55   -19.180979    0      1      
iter:  35  17:27:48  -5.04  -4.66   -19.180920    0      2      
iter:  36  17:28:06  -5.33  -4.91   -19.180907    0      1      
iter:  37  17:28:25  -5.95  -4.91   -19.180924    0      1      
iter:  38  17:28:43  -6.58  -4.92   -19.180949    0      1      
iter:  39  17:29:02  -7.09  -4.93   -19.180967    0      1      
iter:  40  17:29:21  -7.07  -5.10   -19.180910    0      1      
iter:  41  17:29:39  -6.49  -5.26   -19.180925    0      1      
iter:  42  17:29:57  -6.70  -5.69   -19.180899    0      1      
iter:  43  17:30:16  -7.26  -5.77   -19.180901    0      1      
iter:  44  17:30:34  -7.38  -5.83   -19.180909    0      1      
iter:  45  17:30:53  -7.69  -5.91   -19.180910    0      1      

Converged after 45 iterations.

Dipole moment: (0.224494, 1.079552, -0.000000) |e|*Ang

Energy contributions relative to reference atoms: (reference = -412395.464894)

Kinetic:        +26.850783
Potential:      -17.596725
External:        +0.000000
XC:             -28.489642
Entropy (-ST):   +0.000000
Local:           +0.054673
--------------------------
Free energy:    -19.180910
Extrapolated:   -19.180910

Fermi level: -3.75368

 Band  Eigenvalues  Occupancy
    0    -66.34750    2.00000
    1    -35.25550    2.00000
    2    -35.01796    2.00000
    3    -35.00669    2.00000
    4    -16.69335    2.00000
    5    -12.30828    2.00000
    6     -5.92822    2.00000
    7     -5.75745    2.00000
    8     -5.55665    2.00000
    9     -4.21077    2.00000
   10     -3.75368    1.00000
   11     -2.18324    0.00000
   12     -1.84572    0.00000
   13     -0.83725    0.00000
   14     -0.41657    0.00000
   15      2.63134    0.00000
   16      2.96258    0.00000
   17      3.67806    0.00000
   18      5.98471    0.00000
   19      7.07594    0.00000
   20      7.37203    0.00000

Writing to 3_27462_Pm_M06-L_R44_1536945369.gpw (mode='all')

Timing:                              incl.     excl.
-----------------------------------------------------------
Hamiltonian:                        21.340     0.000   0.0% |
 Atomic:                             2.965     0.001   0.0% |
  XC Correction:                     2.964     2.964   0.3% |
 Calculate atomic Hamiltonians:      0.010     0.010   0.0% |
 Communicate:                        0.000     0.000   0.0% |
 Hartree integrate/restrict:         0.022     0.022   0.0% |
 Initialize Hamiltonian:             0.000     0.000   0.0% |
 Poisson:                            3.167     3.167   0.4% |
 XC 3D grid:                        15.168    15.168   1.7% ||
 vbar:                               0.008     0.008   0.0% |
LCAO initialization:                 3.960     2.694   0.3% |
 LCAO eigensolver:                   0.147     0.000   0.0% |
  Calculate projections:             0.000     0.000   0.0% |
  DenseAtomicCorrection:             0.000     0.000   0.0% |
  Distribute overlap matrix:         0.000     0.000   0.0% |
  Orbital Layouts:                   0.001     0.001   0.0% |
  Potential matrix:                  0.145     0.145   0.0% |
 LCAO to grid:                       0.263     0.263   0.0% |
 Set positions (LCAO WFS):           0.856     0.000   0.0% |
  Basic WFS set positions:           0.000     0.000   0.0% |
  Basis functions set positions:     0.000     0.000   0.0% |
  TCI: Calculate S, T, P:            0.856     0.856   0.1% |
SCF-cycle:                         857.238     0.028   0.0% |
 CG:                               102.484    28.097   3.2% ||
  Apply hamiltonian:                31.191    31.191   3.5% ||
  CG: orthonormalize:               15.291     8.155   0.9% |
   CG: overlap:                      6.971     6.971   0.8% |
   CG: overlap2:                     0.165     0.165   0.0% |
  Subspace diag:                    27.905     0.004   0.0% |
   calc_h_matrix:                   20.063     3.473   0.4% |
    Apply hamiltonian:              16.589    16.589   1.9% ||
   diagonalize:                      0.010     0.010   0.0% |
   rotate_psi:                       7.828     7.828   0.9% |
 Density:                            1.994     0.001   0.0% |
  Atomic density matrices:           0.029     0.029   0.0% |
  Mix:                               1.437     1.437   0.2% |
  Multipole moments:                 0.008     0.008   0.0% |
  Pseudo density:                    0.520     0.520   0.1% |
   Symmetrize density:               0.001     0.001   0.0% |
 Hamiltonian:                      752.525     0.005   0.0% |
  Atomic:                           69.675     0.039   0.0% |
   XC Correction:                   69.636    69.636   7.9% |--|
  Calculate atomic Hamiltonians:     0.417     0.417   0.0% |
  Communicate:                       0.000     0.000   0.0% |
  Hartree integrate/restrict:        0.803     0.803   0.1% |
  Poisson:                          53.923    53.923   6.1% |-|
  XC 3D grid:                      627.540   627.540  71.0% |---------------------------|
  vbar:                              0.161     0.161   0.0% |
 Orthonormalize:                     0.207     0.000   0.0% |
  calc_s_matrix:                     0.071     0.071   0.0% |
  inverse-cholesky:                  0.000     0.000   0.0% |
  projections:                       0.038     0.038   0.0% |
  rotate_psi_s:                      0.097     0.097   0.0% |
Set symmetry:                        0.001     0.001   0.0% |
Other:                               1.345     1.345   0.2% |
-----------------------------------------------------------
Total:                                       883.884 100.0%

Memory usage: 540.84 MiB
Date: Fri Sep 14 17:30:53 2018
