
  ___ ___ ___ _ _ _  
 |   |   |_  | | | | 
 | | | | | . | | | | 
 |__ |  _|___|_____|  1.4.0
 |___|_|             

User:   ???@93e7e28806d8
Date:   Fri Sep 14 16:40:48 2018
Arch:   x86_64
Pid:    1569
Python: 3.7.0
gpaw:   /app/gpaw/software/venv/lib/python3.7/site-packages/gpaw
_gpaw:  /app/gpaw/software/venv/lib/python3.7/site-packages/
        _gpaw.cpython-37m-x86_64-linux-gnu.so
ase:    /app/gpaw/software/venv/lib/python3.7/site-packages/ase (version 3.16.2)
numpy:  /app/gpaw/software/venv/lib/python3.7/site-packages/numpy (version 1.15.0)
scipy:  /app/gpaw/software/venv/lib/python3.7/site-packages/scipy (version 1.1.0)
units:  Angstrom and eV
cores:  1

Input parameters:
  basis: dzp
  eigensolver: cg
  gpts: [56 56 56]
  maxiter: 150
  mixer: {backend: pulay,
          beta: None,
          method: separate,
          nmaxold: None,
          weight: None}
  xc: M06-L

System changes: positions, numbers, cell, pbc, initial_charges, initial_magmoms 

Initialize ...

Hf-setup:
  name: Hafnium
  id: d03a45b6fa1dd7f07e443d1513edf499
  Z: 72
  valence: 12
  core: 60
  charge: 0.0
  file: /app/gpaw/datasets/Hf.PBE
  cutoffs: 1.30(comp), 2.36(filt), 4.02(core), lmax=2
  valence states:
                energy  radius
    5s(2.00)   -66.831   1.397
    6s(2.00)    -5.097   1.397
    5p(6.00)   -35.599   1.307
    6p(0.00)    -1.401   1.307
    5d(2.00)    -2.699   1.334
    *d          24.513   1.334

  LCAO basis set for Hf:
    Name: dzp
    File: /app/gpaw/datasets/Hf.dzp.basis
    Number of radial functions: 9
    Number of spherical harmonics: 27
      l=0, rc=3.5625 Bohr: 5s-sz confined orbital
      l=0, rc=9.5469 Bohr: 6s-sz confined orbital
      l=1, rc=4.3125 Bohr: 5p-sz confined orbital
      l=2, rc=8.5000 Bohr: 5d-sz confined orbital
      l=0, rc=2.2656 Bohr: 5s-dz split-valence wave
      l=0, rc=5.7812 Bohr: 6s-dz split-valence wave
      l=1, rc=2.6406 Bohr: 5p-dz split-valence wave
      l=2, rc=4.9844 Bohr: 5d-dz split-valence wave
      l=3, rc=8.5000 Bohr: f-type Gaussian polarization

N-setup:
  name: Nitrogen
  id: 45c8c9c739e7b131496b9fd2deb94bff
  Z: 7
  valence: 5
  core: 2
  charge: 0.0
  file: /app/gpaw/datasets/N.PBE
  cutoffs: 0.58(comp), 1.11(filt), 0.96(core), lmax=2
  valence states:
                energy  radius
    2s(2.00)   -18.583   0.603
    2p(3.00)    -7.089   0.529
    *s           8.629   0.603
    *p          20.123   0.529
    *d           0.000   0.577

  LCAO basis set for N:
    Name: dzp
    File: /app/gpaw/datasets/N.dzp.basis
    Number of radial functions: 5
    Number of spherical harmonics: 13
      l=0, rc=4.8594 Bohr: 2s-sz confined orbital
      l=1, rc=6.0625 Bohr: 2p-sz confined orbital
      l=0, rc=2.6094 Bohr: 2s-dz split-valence wave
      l=1, rc=3.2656 Bohr: 2p-dz split-valence wave
      l=2, rc=6.0625 Bohr: d-type Gaussian polarization

C-setup:
  name: Carbon
  id: 2f012631b351e3618121587a96c50fca
  Z: 6
  valence: 4
  core: 2
  charge: 0.0
  file: /app/gpaw/datasets/C.PBE
  cutoffs: 0.64(comp), 1.14(filt), 1.14(core), lmax=2
  valence states:
                energy  radius
    2s(2.00)   -13.751   0.635
    2p(2.00)    -5.285   0.635
    *s          13.461   0.635
    *p          21.927   0.635
    *d           0.000   0.635

  LCAO basis set for C:
    Name: dzp
    File: /app/gpaw/datasets/C.dzp.basis
    Number of radial functions: 5
    Number of spherical harmonics: 13
      l=0, rc=5.5938 Bohr: 2s-sz confined orbital
      l=1, rc=6.8750 Bohr: 2p-sz confined orbital
      l=0, rc=3.0938 Bohr: 2s-dz split-valence wave
      l=1, rc=3.8125 Bohr: 2p-dz split-valence wave
      l=2, rc=6.8750 Bohr: d-type Gaussian polarization

Reference energy: -412395.464894

Spin-paired calculation

Occupation numbers:
  Fermi-Dirac: width=0.0000 eV

Convergence criteria:
  Maximum total energy change: 0.0005 eV / electron
  Maximum integral of absolute density change: 0.0001 electrons
  Maximum integral of absolute eigenstate change: 4e-08 eV^2
  Maximum number of iterations: 150

Symmetries present (total): 1

  ( 1  0  0)
  ( 0  1  0)
  ( 0  0  1)

1 k-point (Gamma)
1 k-point in the irreducible part of the Brillouin zone
       k-points in crystal coordinates                weights
   0:     0.00000000    0.00000000    0.00000000          1/1

Wave functions: Uniform real-space grid
  Kinetic energy operator: 6*3+1=19 point O(h^6) finite-difference Laplacian
  ScaLapack parameters: grid=1x1, blocksize=None 

Eigensolver
   CG(niter=4, rtol=3.0e-01) 

Densities:
  Coarse grid: 56*56*56 grid
  Fine grid: 112*112*112 grid
  Total Charge: 0.000000 

Density mixing:
  Method: separate
  Backend: pulay
  Linear mixing parameter: 0.25
  Mixing with 3 old densities
  No damping of long wave oscillations 

Hamiltonian:
  XC and Coulomb potentials evaluated on a 112*112*112 grid
  Using the M06-L Exchange-Correlation functional
  Interpolation: tri-quintic (5. degree polynomial)
  Poisson solver: Jacobi solver with 5 multi-grid levels
    Coarsest grid: 7 x 7 x 7 points
    Stencil: 6*3+1=19 point O(h^6) finite-difference Laplacian
    Max iterations: 1000
    Tolerance: 2.000000e-10 

Memory estimate:
  Process memory now: 41.62 MiB
  Calculator: 198.44 MiB
    Density: 80.53 MiB
      Arrays: 33.84 MiB
      Localized functions: 39.07 MiB
      Mixer: 7.62 MiB
    Hamiltonian: 52.63 MiB
      Arrays: 22.14 MiB
      XC: 2.54 MiB
      Poisson: 25.33 MiB
      vbar: 2.62 MiB
    Wavefunctions: 65.28 MiB
      Arrays psit_nG: 26.66 MiB
      Eigensolver: 33.00 MiB
      Projections: 0.01 MiB
      Projectors: 5.61 MiB

Total number of cores used: 1

Number of atoms: 3
Number of atomic orbitals: 53
Number of bands in calculation: 21
Bands to converge: occupied states only
Number of valence electrons: 21

... initialized

Initializing position-dependent things.

Density initialized from atomic densities
Creating initial wave functions:
  21 bands from LCAO basis set

     .---------------.  
    /|               |  
   / |               |  
  /  |               |  
 *   |               |  
 |   |               |  
 |   | N   Hf  C     |  
 |   |               |  
 |   .---------------.  
 |  /               /   
 | /               /    
 |/               /     
 *---------------*      

Positions:
   0 Hf     3.165000    3.500000    3.250000    ( 0.0000,  0.0000,  0.0000)
   1 N      1.485000    3.000000    3.250000    ( 0.0000,  0.0000,  0.0000)
   2 C      5.015000    3.000000    3.250000    ( 0.0000,  0.0000,  0.0000)

Unit cell:
           periodic     x           y           z      points  spacing
  1. axis:    no     6.500000    0.000000    0.000000    56     0.1161
  2. axis:    no     0.000000    6.500000    0.000000    56     0.1161
  3. axis:    no     0.000000    0.000000    6.500000    56     0.1161

  Lengths:   6.500000   6.500000   6.500000
  Angles:   90.000000  90.000000  90.000000

Effective grid spacing dv^(1/3) = 0.1161

                     log10-error:    total        iterations:
           time      wfs    density  energy       fermi  poisson
iter:   1  16:41:19  +3.41   +inf  -496.082940    0      13     
iter:   2  16:41:22  +3.41   +inf  -729.817672    0             
iter:   3  16:41:25  +2.94   +inf  -860.021198    0             
iter:   4  16:41:46  +3.21  -0.15   -71.984129    0      12     
iter:   5  16:42:09  +2.58  -0.22     0.164938    0      11     
iter:   6  16:42:32  +2.71  -0.44    10.079949    0      11     
iter:   7  16:42:54  +2.81  -0.63   -74.778553    0      11     
iter:   8  16:43:16  +2.49  -0.49    -8.856212    0      11     
iter:   9  16:43:39  +1.65  -0.72   -14.595114    0      11     
iter:  10  16:44:01  +1.19  -1.01   -17.131036    0      9      
iter:  11  16:44:23  +0.76  -0.89   -15.708692    0      9      
iter:  12  16:44:44  +0.60  -1.24   -17.288506    0      8      
iter:  13  16:45:05  +0.04  -1.20   -17.936575    0      7      
iter:  14  16:45:27  -0.61  -1.20   -18.069753    0      6      
iter:  15  16:45:48  +0.14  -1.14   -18.268629    0      8      
iter:  16  16:46:09  -0.64  -1.04   -18.161839    0      5      
iter:  17  16:46:31  +0.01  -1.03   -18.077370    0      9      
iter:  18  16:46:53  -0.37  -1.22   -18.099412    0      7      
iter:  19  16:47:15  -0.15  -1.36   -18.433463    0      8      
iter:  20  16:47:36  -0.69  -1.62   -18.524922    0      7      
iter:  21  16:47:58  -0.90  -1.77   -18.580058    0      7      
iter:  22  16:48:19  -1.09  -1.91   -18.593978    0      7      
iter:  23  16:48:43  -1.66  -2.18   -18.599960    0      5      
iter:  24  16:49:11  -1.87  -2.29   -18.601923    0      6      
iter:  25  16:49:39  -2.18  -2.50   -18.603356    0      5      
iter:  26  16:50:06  -2.84  -2.87   -18.603916    0      4      
iter:  27  16:50:31  -2.99  -3.02   -18.604380    0      4      
iter:  28  16:50:52  -3.22  -3.27   -18.604562    0      3      
iter:  29  16:51:12  -3.73  -3.36   -18.604741    0      3      
iter:  30  16:51:33  -3.95  -3.56   -18.604834    0      3      
iter:  31  16:51:54  -4.12  -3.68   -18.604905    0      3      
iter:  32  16:52:14  -4.11  -3.84   -18.604931    0      3      
iter:  33  16:52:34  -4.38  -4.01   -18.604964    0      2      
iter:  34  16:52:54  -4.55  -4.08   -18.604979    0      2      
iter:  35  16:53:18  -4.78  -4.33   -18.604962    0      2      
iter:  36  16:53:38  -5.09  -4.51   -18.604951    0      2      
iter:  37  16:53:57  -5.56  -4.76   -18.604957    0      1      
iter:  38  16:54:17  -6.35  -4.79   -18.604948    0      1      
iter:  39  16:54:36  -6.72  -4.96   -18.604923    0      1      
iter:  40  16:54:56  -7.23  -5.06   -18.604926    0      1      
iter:  41  16:55:15  -6.45  -5.17   -18.604903    0      1      
iter:  42  16:55:34  -7.12  -5.55   -18.604934    0      1      
iter:  43  16:55:54  -7.94  -5.60   -18.604937    0      1      

Converged after 43 iterations.

Dipole moment: (0.226430, 0.998583, 0.000000) |e|*Ang

Energy contributions relative to reference atoms: (reference = -412395.464894)

Kinetic:        +22.571542
Potential:      -13.636576
External:        +0.000000
XC:             -27.558403
Entropy (-ST):   +0.000000
Local:           +0.018499
--------------------------
Free energy:    -18.604937
Extrapolated:   -18.604937

Fermi level: -3.67086

 Band  Eigenvalues  Occupancy
    0    -66.55043    2.00000
    1    -35.28853    2.00000
    2    -35.21697    2.00000
    3    -35.16162    2.00000
    4    -16.64589    2.00000
    5    -12.24233    2.00000
    6     -5.82293    2.00000
    7     -5.69518    2.00000
    8     -5.28838    2.00000
    9     -3.97642    2.00000
   10     -3.67086    1.00000
   11     -2.25234    0.00000
   12     -1.69568    0.00000
   13     -1.16116    0.00000
   14     -0.83959    0.00000
   15      2.48140    0.00000
   16      2.71432    0.00000
   17      3.05581    0.00000
   18      3.09788    0.00000
   19      6.35416    0.00000
   20      6.80018    0.00000

Writing to 3_27462_Pm_M06-L_R37_1536943248.gpw (mode='all')

Timing:                              incl.     excl.
-----------------------------------------------------------
Hamiltonian:                        21.121     0.000   0.0% |
 Atomic:                             2.887     0.001   0.0% |
  XC Correction:                     2.886     2.886   0.3% |
 Calculate atomic Hamiltonians:      0.010     0.010   0.0% |
 Communicate:                        0.000     0.000   0.0% |
 Hartree integrate/restrict:         0.020     0.020   0.0% |
 Initialize Hamiltonian:             0.000     0.000   0.0% |
 Poisson:                            3.057     3.057   0.3% |
 XC 3D grid:                        15.140    15.140   1.7% ||
 vbar:                               0.007     0.007   0.0% |
LCAO initialization:                 3.723     2.467   0.3% |
 LCAO eigensolver:                   0.144     0.000   0.0% |
  Calculate projections:             0.000     0.000   0.0% |
  DenseAtomicCorrection:             0.000     0.000   0.0% |
  Distribute overlap matrix:         0.000     0.000   0.0% |
  Orbital Layouts:                   0.001     0.001   0.0% |
  Potential matrix:                  0.142     0.142   0.0% |
 LCAO to grid:                       0.252     0.252   0.0% |
 Set positions (LCAO WFS):           0.859     0.000   0.0% |
  Basic WFS set positions:           0.000     0.000   0.0% |
  Basis functions set positions:     0.000     0.000   0.0% |
  TCI: Calculate S, T, P:            0.859     0.859   0.1% |
SCF-cycle:                         879.693     0.032   0.0% |
 CG:                               114.548    30.612   3.4% ||
  Apply hamiltonian:                33.807    33.807   3.7% ||
  CG: orthonormalize:               17.054     8.951   1.0% |
   CG: overlap:                      7.940     7.940   0.9% |
   CG: overlap2:                     0.162     0.162   0.0% |
  Subspace diag:                    33.075     0.004   0.0% |
   calc_h_matrix:                   23.611     4.641   0.5% |
    Apply hamiltonian:              18.971    18.971   2.1% ||
   diagonalize:                      0.011     0.011   0.0% |
   rotate_psi:                       9.449     9.449   1.0% |
 Density:                            2.285     0.001   0.0% |
  Atomic density matrices:           0.030     0.030   0.0% |
  Mix:                               1.647     1.647   0.2% |
  Multipole moments:                 0.008     0.008   0.0% |
  Pseudo density:                    0.599     0.598   0.1% |
   Symmetrize density:               0.001     0.001   0.0% |
 Hamiltonian:                      762.677     0.005   0.0% |
  Atomic:                           71.754     0.042   0.0% |
   XC Correction:                   71.713    71.713   7.9% |--|
  Calculate atomic Hamiltonians:     0.439     0.439   0.0% |
  Communicate:                       0.000     0.000   0.0% |
  Hartree integrate/restrict:        0.948     0.948   0.1% |
  Poisson:                          57.399    57.399   6.3% |--|
  XC 3D grid:                      631.932   631.932  69.8% |---------------------------|
  vbar:                              0.199     0.199   0.0% |
 Orthonormalize:                     0.151     0.000   0.0% |
  calc_s_matrix:                     0.051     0.051   0.0% |
  inverse-cholesky:                  0.000     0.000   0.0% |
  projections:                       0.033     0.033   0.0% |
  rotate_psi_s:                      0.066     0.066   0.0% |
Set symmetry:                        0.001     0.001   0.0% |
Other:                               1.313     1.313   0.1% |
-----------------------------------------------------------
Total:                                       905.850 100.0%

Memory usage: 540.72 MiB
Date: Fri Sep 14 16:55:54 2018
