
  ___ ___ ___ _ _ _  
 |   |   |_  | | | | 
 | | | | | . | | | | 
 |__ |  _|___|_____|  1.4.0
 |___|_|             

User:   ???@93e7e28806d8
Date:   Fri Sep 14 13:57:16 2018
Arch:   x86_64
Pid:    568
Python: 3.7.0
gpaw:   /app/gpaw/software/venv/lib/python3.7/site-packages/gpaw
_gpaw:  /app/gpaw/software/venv/lib/python3.7/site-packages/
        _gpaw.cpython-37m-x86_64-linux-gnu.so
ase:    /app/gpaw/software/venv/lib/python3.7/site-packages/ase (version 3.16.2)
numpy:  /app/gpaw/software/venv/lib/python3.7/site-packages/numpy (version 1.15.0)
scipy:  /app/gpaw/software/venv/lib/python3.7/site-packages/scipy (version 1.1.0)
units:  Angstrom and eV
cores:  1

Input parameters:
  basis: dzp
  eigensolver: cg
  gpts: [56 56 56]
  maxiter: 150
  mixer: {backend: pulay,
          beta: None,
          method: separate,
          nmaxold: None,
          weight: None}
  xc: M06-L

System changes: positions, numbers, cell, pbc, initial_charges, initial_magmoms 

Initialize ...

Hf-setup:
  name: Hafnium
  id: d03a45b6fa1dd7f07e443d1513edf499
  Z: 72
  valence: 12
  core: 60
  charge: 0.0
  file: /app/gpaw/datasets/Hf.PBE
  cutoffs: 1.30(comp), 2.36(filt), 4.02(core), lmax=2
  valence states:
                energy  radius
    5s(2.00)   -66.831   1.397
    6s(2.00)    -5.097   1.397
    5p(6.00)   -35.599   1.307
    6p(0.00)    -1.401   1.307
    5d(2.00)    -2.699   1.334
    *d          24.513   1.334

  LCAO basis set for Hf:
    Name: dzp
    File: /app/gpaw/datasets/Hf.dzp.basis
    Number of radial functions: 9
    Number of spherical harmonics: 27
      l=0, rc=3.5625 Bohr: 5s-sz confined orbital
      l=0, rc=9.5469 Bohr: 6s-sz confined orbital
      l=1, rc=4.3125 Bohr: 5p-sz confined orbital
      l=2, rc=8.5000 Bohr: 5d-sz confined orbital
      l=0, rc=2.2656 Bohr: 5s-dz split-valence wave
      l=0, rc=5.7812 Bohr: 6s-dz split-valence wave
      l=1, rc=2.6406 Bohr: 5p-dz split-valence wave
      l=2, rc=4.9844 Bohr: 5d-dz split-valence wave
      l=3, rc=8.5000 Bohr: f-type Gaussian polarization

N-setup:
  name: Nitrogen
  id: 45c8c9c739e7b131496b9fd2deb94bff
  Z: 7
  valence: 5
  core: 2
  charge: 0.0
  file: /app/gpaw/datasets/N.PBE
  cutoffs: 0.58(comp), 1.11(filt), 0.96(core), lmax=2
  valence states:
                energy  radius
    2s(2.00)   -18.583   0.603
    2p(3.00)    -7.089   0.529
    *s           8.629   0.603
    *p          20.123   0.529
    *d           0.000   0.577

  LCAO basis set for N:
    Name: dzp
    File: /app/gpaw/datasets/N.dzp.basis
    Number of radial functions: 5
    Number of spherical harmonics: 13
      l=0, rc=4.8594 Bohr: 2s-sz confined orbital
      l=1, rc=6.0625 Bohr: 2p-sz confined orbital
      l=0, rc=2.6094 Bohr: 2s-dz split-valence wave
      l=1, rc=3.2656 Bohr: 2p-dz split-valence wave
      l=2, rc=6.0625 Bohr: d-type Gaussian polarization

C-setup:
  name: Carbon
  id: 2f012631b351e3618121587a96c50fca
  Z: 6
  valence: 4
  core: 2
  charge: 0.0
  file: /app/gpaw/datasets/C.PBE
  cutoffs: 0.64(comp), 1.14(filt), 1.14(core), lmax=2
  valence states:
                energy  radius
    2s(2.00)   -13.751   0.635
    2p(2.00)    -5.285   0.635
    *s          13.461   0.635
    *p          21.927   0.635
    *d           0.000   0.635

  LCAO basis set for C:
    Name: dzp
    File: /app/gpaw/datasets/C.dzp.basis
    Number of radial functions: 5
    Number of spherical harmonics: 13
      l=0, rc=5.5938 Bohr: 2s-sz confined orbital
      l=1, rc=6.8750 Bohr: 2p-sz confined orbital
      l=0, rc=3.0938 Bohr: 2s-dz split-valence wave
      l=1, rc=3.8125 Bohr: 2p-dz split-valence wave
      l=2, rc=6.8750 Bohr: d-type Gaussian polarization

Reference energy: -412395.464894

Spin-paired calculation

Occupation numbers:
  Fermi-Dirac: width=0.0000 eV

Convergence criteria:
  Maximum total energy change: 0.0005 eV / electron
  Maximum integral of absolute density change: 0.0001 electrons
  Maximum integral of absolute eigenstate change: 4e-08 eV^2
  Maximum number of iterations: 150

Symmetries present (total): 1

  ( 1  0  0)
  ( 0  1  0)
  ( 0  0  1)

1 k-point (Gamma)
1 k-point in the irreducible part of the Brillouin zone
       k-points in crystal coordinates                weights
   0:     0.00000000    0.00000000    0.00000000          1/1

Wave functions: Uniform real-space grid
  Kinetic energy operator: 6*3+1=19 point O(h^6) finite-difference Laplacian
  ScaLapack parameters: grid=1x1, blocksize=None 

Eigensolver
   CG(niter=4, rtol=3.0e-01) 

Densities:
  Coarse grid: 56*56*56 grid
  Fine grid: 112*112*112 grid
  Total Charge: 0.000000 

Density mixing:
  Method: separate
  Backend: pulay
  Linear mixing parameter: 0.25
  Mixing with 3 old densities
  No damping of long wave oscillations 

Hamiltonian:
  XC and Coulomb potentials evaluated on a 112*112*112 grid
  Using the M06-L Exchange-Correlation functional
  Interpolation: tri-quintic (5. degree polynomial)
  Poisson solver: Jacobi solver with 5 multi-grid levels
    Coarsest grid: 7 x 7 x 7 points
    Stencil: 6*3+1=19 point O(h^6) finite-difference Laplacian
    Max iterations: 1000
    Tolerance: 2.000000e-10 

Memory estimate:
  Process memory now: 41.73 MiB
  Calculator: 198.44 MiB
    Density: 80.53 MiB
      Arrays: 33.84 MiB
      Localized functions: 39.07 MiB
      Mixer: 7.62 MiB
    Hamiltonian: 52.63 MiB
      Arrays: 22.14 MiB
      XC: 2.54 MiB
      Poisson: 25.33 MiB
      vbar: 2.62 MiB
    Wavefunctions: 65.28 MiB
      Arrays psit_nG: 26.66 MiB
      Eigensolver: 33.00 MiB
      Projections: 0.01 MiB
      Projectors: 5.61 MiB

Total number of cores used: 1

Number of atoms: 3
Number of atomic orbitals: 53
Number of bands in calculation: 21
Bands to converge: occupied states only
Number of valence electrons: 21

... initialized

Initializing position-dependent things.

Density initialized from atomic densities
Creating initial wave functions:
  21 bands from LCAO basis set

     .---------------.  
    /|               |  
   / |               |  
  /  |               |  
 *   |               |  
 |   |               |  
 |   |N    Hf  C     |  
 |   |               |  
 |   .---------------.  
 |  /               /   
 | /               /    
 |/               /     
 *---------------*      

Positions:
   0 Hf     3.215000    3.425000    3.250000    ( 0.0000,  0.0000,  0.0000)
   1 N      1.435000    3.075000    3.250000    ( 0.0000,  0.0000,  0.0000)
   2 C      5.065000    3.075000    3.250000    ( 0.0000,  0.0000,  0.0000)

Unit cell:
           periodic     x           y           z      points  spacing
  1. axis:    no     6.500000    0.000000    0.000000    56     0.1161
  2. axis:    no     0.000000    6.500000    0.000000    56     0.1161
  3. axis:    no     0.000000    0.000000    6.500000    56     0.1161

  Lengths:   6.500000   6.500000   6.500000
  Angles:   90.000000  90.000000  90.000000

Effective grid spacing dv^(1/3) = 0.1161

                     log10-error:    total        iterations:
           time      wfs    density  energy       fermi  poisson
iter:   1  13:57:45  +3.56   +inf  -480.756534    0      13     
iter:   2  13:57:47  +3.87   +inf  -969.542076    0             
iter:   3  13:57:50  +4.09   +inf  -1357.033741    0             
iter:   4  13:58:12  +3.32  +0.02     8.672505    0      14     
iter:   5  13:58:34  +3.51  -0.14    25.544696    0      12     
iter:   6  13:58:55  +3.32  -0.34    -6.811235    0      12     
iter:   7  13:59:18  +2.72  -0.49  -120.313496    0      13     
iter:   8  13:59:39  +2.28  -0.28   -36.000855    0      11     
iter:   9  14:00:01  +2.17  -0.35   -67.149990    0      12     
iter:  10  14:00:22  +2.09  -0.30   -79.282294    0      12     
iter:  11  14:00:44  +1.95  -0.41   -15.503644    0      11     
iter:  12  14:01:04  +1.86  -0.54   -29.040630    0      9      
iter:  13  14:01:25  +1.86  -0.55   -18.303672    0      9      
iter:  14  14:01:45  +1.02  -0.61   -20.444890    0      9      
iter:  15  14:02:06  +0.84  -0.66   -18.779146    0      10     
iter:  16  14:02:27  +0.71  -0.77   -18.016070    0      9      
iter:  17  14:02:47  +0.56  -0.97   -17.705170    0      9      
iter:  18  14:03:08  -0.01  -1.21   -17.840658    0      8      
iter:  19  14:03:28  -0.47  -1.66   -17.924576    0      7      
iter:  20  14:03:48  -0.91  -1.80   -17.992427    0      6      
iter:  21  14:04:08  -1.24  -1.93   -18.002813    0      7      
iter:  22  14:04:28  -1.55  -2.23   -18.011545    0      6      
iter:  23  14:04:48  -2.26  -2.47   -18.014172    0      4      
iter:  24  14:05:08  -2.61  -2.53   -18.015160    0      5      
iter:  25  14:05:27  -2.66  -2.71   -18.015959    0      4      
iter:  26  14:05:47  -2.81  -2.93   -18.016619    0      4      
iter:  27  14:06:07  -3.19  -3.15   -18.016894    0      3      
iter:  28  14:06:26  -3.60  -3.25   -18.017131    0      3      
iter:  29  14:06:46  -3.54  -3.41   -18.017258    0      3      
iter:  30  14:07:05  -3.79  -3.64   -18.017318    0      3      
iter:  31  14:07:24  -4.05  -3.77   -18.017355    0      3      
iter:  32  14:07:44  -4.41  -3.97   -18.017390    0      2      
iter:  33  14:08:03  -5.04  -4.05   -18.017396    0      2      
iter:  34  14:08:22  -5.15  -4.18   -18.017406    0      2      
iter:  35  14:08:42  -5.27  -4.40   -18.017395    0      2      
iter:  36  14:09:01  -5.63  -4.69   -18.017404    0      1      
iter:  37  14:09:20  -6.29  -4.77   -18.017389    0      1      
iter:  38  14:09:39  -6.40  -4.93   -18.017353    0      1      
iter:  39  14:09:58  -6.87  -5.07   -18.017326    0      1      
iter:  40  14:10:17  -7.05  -5.23   -18.017340    0      1      
iter:  41  14:10:36  -7.50  -5.54   -18.017351    0      1      

Converged after 41 iterations.

Dipole moment: (0.281520, 0.842436, 0.000000) |e|*Ang

Energy contributions relative to reference atoms: (reference = -412395.464894)

Kinetic:        +20.884443
Potential:      -11.736218
External:        +0.000000
XC:             -27.135237
Entropy (-ST):   +0.000000
Local:           -0.030340
--------------------------
Free energy:    -18.017351
Extrapolated:   -18.017351

Fermi level: -3.74688

 Band  Eigenvalues  Occupancy
    0    -66.80368    2.00000
    1    -35.48932    2.00000
    2    -35.46447    2.00000
    3    -35.28744    2.00000
    4    -16.67481    2.00000
    5    -12.11655    2.00000
    6     -5.69440    2.00000
    7     -5.66834    2.00000
    8     -5.03089    2.00000
    9     -3.89728    2.00000
   10     -3.74688    1.00000
   11     -2.42475    0.00000
   12     -1.48155    0.00000
   13     -1.32293    0.00000
   14     -1.25105    0.00000
   15      2.49532    0.00000
   16      2.57380    0.00000
   17      2.84232    0.00000
   18      3.33327    0.00000
   19      6.56767    0.00000
   20      7.62844    0.00000

Writing to 3_27462_Pm_M06-L_R24_1536933436.gpw (mode='all')

Timing:                              incl.     excl.
-----------------------------------------------------------
Hamiltonian:                        20.588     0.000   0.0% |
 Atomic:                             2.747     0.001   0.0% |
  XC Correction:                     2.746     2.746   0.3% |
 Calculate atomic Hamiltonians:      0.009     0.009   0.0% |
 Communicate:                        0.000     0.000   0.0% |
 Hartree integrate/restrict:         0.019     0.019   0.0% |
 Initialize Hamiltonian:             0.000     0.000   0.0% |
 Poisson:                            3.102     3.102   0.4% |
 XC 3D grid:                        14.703    14.703   1.8% ||
 vbar:                               0.006     0.006   0.0% |
LCAO initialization:                 3.567     2.356   0.3% |
 LCAO eigensolver:                   0.138     0.000   0.0% |
  Calculate projections:             0.000     0.000   0.0% |
  DenseAtomicCorrection:             0.000     0.000   0.0% |
  Distribute overlap matrix:         0.000     0.000   0.0% |
  Orbital Layouts:                   0.001     0.001   0.0% |
  Potential matrix:                  0.136     0.136   0.0% |
 LCAO to grid:                       0.244     0.244   0.0% |
 Set positions (LCAO WFS):           0.828     0.000   0.0% |
  Basic WFS set positions:           0.000     0.000   0.0% |
  Basis functions set positions:     0.000     0.000   0.0% |
  TCI: Calculate S, T, P:            0.828     0.828   0.1% |
SCF-cycle:                         774.771     0.028   0.0% |
 CG:                                93.791    26.351   3.3% ||
  Apply hamiltonian:                29.119    29.119   3.6% ||
  CG: orthonormalize:               14.000     7.391   0.9% |
   CG: overlap:                      6.455     6.455   0.8% |
   CG: overlap2:                     0.154     0.154   0.0% |
  Subspace diag:                    24.321     0.003   0.0% |
   calc_h_matrix:                   17.613     2.982   0.4% |
    Apply hamiltonian:              14.632    14.632   1.8% ||
   diagonalize:                      0.010     0.010   0.0% |
   rotate_psi:                       6.695     6.695   0.8% |
 Density:                            1.871     0.001   0.0% |
  Atomic density matrices:           0.026     0.026   0.0% |
  Mix:                               1.357     1.357   0.2% |
  Multipole moments:                 0.007     0.007   0.0% |
  Pseudo density:                    0.480     0.480   0.1% |
   Symmetrize density:               0.001     0.001   0.0% |
 Hamiltonian:                      678.961     0.004   0.0% |
  Atomic:                           62.681     0.035   0.0% |
   XC Correction:                   62.646    62.646   7.8% |--|
  Calculate atomic Hamiltonians:     0.371     0.371   0.0% |
  Communicate:                       0.000     0.000   0.0% |
  Hartree integrate/restrict:        0.736     0.736   0.1% |
  Poisson:                          53.480    53.480   6.7% |--|
  XC 3D grid:                      561.541   561.541  70.2% |---------------------------|
  vbar:                              0.148     0.148   0.0% |
 Orthonormalize:                     0.121     0.000   0.0% |
  calc_s_matrix:                     0.039     0.039   0.0% |
  inverse-cholesky:                  0.000     0.000   0.0% |
  projections:                       0.032     0.032   0.0% |
  rotate_psi_s:                      0.049     0.049   0.0% |
Set symmetry:                        0.001     0.001   0.0% |
Other:                               1.248     1.248   0.2% |
-----------------------------------------------------------
Total:                                       800.175 100.0%

Memory usage: 540.70 MiB
Date: Fri Sep 14 14:10:36 2018
