
  ___ ___ ___ _ _ _  
 |   |   |_  | | | | 
 | | | | | . | | | | 
 |__ |  _|___|_____|  1.4.0
 |___|_|             

User:   ???@93e7e28806d8
Date:   Fri Sep 14 14:13:00 2018
Arch:   x86_64
Pid:    628
Python: 3.7.0
gpaw:   /app/gpaw/software/venv/lib/python3.7/site-packages/gpaw
_gpaw:  /app/gpaw/software/venv/lib/python3.7/site-packages/
        _gpaw.cpython-37m-x86_64-linux-gnu.so
ase:    /app/gpaw/software/venv/lib/python3.7/site-packages/ase (version 3.16.2)
numpy:  /app/gpaw/software/venv/lib/python3.7/site-packages/numpy (version 1.15.0)
scipy:  /app/gpaw/software/venv/lib/python3.7/site-packages/scipy (version 1.1.0)
units:  Angstrom and eV
cores:  1

Input parameters:
  basis: dzp
  eigensolver: cg
  gpts: [56 56 56]
  maxiter: 150
  mixer: {backend: pulay,
          beta: None,
          method: separate,
          nmaxold: None,
          weight: None}
  xc: M06-L

System changes: positions, numbers, cell, pbc, initial_charges, initial_magmoms 

Initialize ...

Hf-setup:
  name: Hafnium
  id: d03a45b6fa1dd7f07e443d1513edf499
  Z: 72
  valence: 12
  core: 60
  charge: 0.0
  file: /app/gpaw/datasets/Hf.PBE
  cutoffs: 1.30(comp), 2.36(filt), 4.02(core), lmax=2
  valence states:
                energy  radius
    5s(2.00)   -66.831   1.397
    6s(2.00)    -5.097   1.397
    5p(6.00)   -35.599   1.307
    6p(0.00)    -1.401   1.307
    5d(2.00)    -2.699   1.334
    *d          24.513   1.334

  LCAO basis set for Hf:
    Name: dzp
    File: /app/gpaw/datasets/Hf.dzp.basis
    Number of radial functions: 9
    Number of spherical harmonics: 27
      l=0, rc=3.5625 Bohr: 5s-sz confined orbital
      l=0, rc=9.5469 Bohr: 6s-sz confined orbital
      l=1, rc=4.3125 Bohr: 5p-sz confined orbital
      l=2, rc=8.5000 Bohr: 5d-sz confined orbital
      l=0, rc=2.2656 Bohr: 5s-dz split-valence wave
      l=0, rc=5.7812 Bohr: 6s-dz split-valence wave
      l=1, rc=2.6406 Bohr: 5p-dz split-valence wave
      l=2, rc=4.9844 Bohr: 5d-dz split-valence wave
      l=3, rc=8.5000 Bohr: f-type Gaussian polarization

N-setup:
  name: Nitrogen
  id: 45c8c9c739e7b131496b9fd2deb94bff
  Z: 7
  valence: 5
  core: 2
  charge: 0.0
  file: /app/gpaw/datasets/N.PBE
  cutoffs: 0.58(comp), 1.11(filt), 0.96(core), lmax=2
  valence states:
                energy  radius
    2s(2.00)   -18.583   0.603
    2p(3.00)    -7.089   0.529
    *s           8.629   0.603
    *p          20.123   0.529
    *d           0.000   0.577

  LCAO basis set for N:
    Name: dzp
    File: /app/gpaw/datasets/N.dzp.basis
    Number of radial functions: 5
    Number of spherical harmonics: 13
      l=0, rc=4.8594 Bohr: 2s-sz confined orbital
      l=1, rc=6.0625 Bohr: 2p-sz confined orbital
      l=0, rc=2.6094 Bohr: 2s-dz split-valence wave
      l=1, rc=3.2656 Bohr: 2p-dz split-valence wave
      l=2, rc=6.0625 Bohr: d-type Gaussian polarization

C-setup:
  name: Carbon
  id: 2f012631b351e3618121587a96c50fca
  Z: 6
  valence: 4
  core: 2
  charge: 0.0
  file: /app/gpaw/datasets/C.PBE
  cutoffs: 0.64(comp), 1.14(filt), 1.14(core), lmax=2
  valence states:
                energy  radius
    2s(2.00)   -13.751   0.635
    2p(2.00)    -5.285   0.635
    *s          13.461   0.635
    *p          21.927   0.635
    *d           0.000   0.635

  LCAO basis set for C:
    Name: dzp
    File: /app/gpaw/datasets/C.dzp.basis
    Number of radial functions: 5
    Number of spherical harmonics: 13
      l=0, rc=5.5938 Bohr: 2s-sz confined orbital
      l=1, rc=6.8750 Bohr: 2p-sz confined orbital
      l=0, rc=3.0938 Bohr: 2s-dz split-valence wave
      l=1, rc=3.8125 Bohr: 2p-dz split-valence wave
      l=2, rc=6.8750 Bohr: d-type Gaussian polarization

Reference energy: -412395.464894

Spin-paired calculation

Occupation numbers:
  Fermi-Dirac: width=0.0000 eV

Convergence criteria:
  Maximum total energy change: 0.0005 eV / electron
  Maximum integral of absolute density change: 0.0001 electrons
  Maximum integral of absolute eigenstate change: 4e-08 eV^2
  Maximum number of iterations: 150

Symmetries present (total): 1

  ( 1  0  0)
  ( 0  1  0)
  ( 0  0  1)

1 k-point (Gamma)
1 k-point in the irreducible part of the Brillouin zone
       k-points in crystal coordinates                weights
   0:     0.00000000    0.00000000    0.00000000          1/1

Wave functions: Uniform real-space grid
  Kinetic energy operator: 6*3+1=19 point O(h^6) finite-difference Laplacian
  ScaLapack parameters: grid=1x1, blocksize=None 

Eigensolver
   CG(niter=4, rtol=3.0e-01) 

Densities:
  Coarse grid: 56*56*56 grid
  Fine grid: 112*112*112 grid
  Total Charge: 0.000000 

Density mixing:
  Method: separate
  Backend: pulay
  Linear mixing parameter: 0.25
  Mixing with 3 old densities
  No damping of long wave oscillations 

Hamiltonian:
  XC and Coulomb potentials evaluated on a 112*112*112 grid
  Using the M06-L Exchange-Correlation functional
  Interpolation: tri-quintic (5. degree polynomial)
  Poisson solver: Jacobi solver with 5 multi-grid levels
    Coarsest grid: 7 x 7 x 7 points
    Stencil: 6*3+1=19 point O(h^6) finite-difference Laplacian
    Max iterations: 1000
    Tolerance: 2.000000e-10 

Memory estimate:
  Process memory now: 41.61 MiB
  Calculator: 198.44 MiB
    Density: 80.53 MiB
      Arrays: 33.84 MiB
      Localized functions: 39.07 MiB
      Mixer: 7.62 MiB
    Hamiltonian: 52.63 MiB
      Arrays: 22.14 MiB
      XC: 2.54 MiB
      Poisson: 25.33 MiB
      vbar: 2.62 MiB
    Wavefunctions: 65.28 MiB
      Arrays psit_nG: 26.66 MiB
      Eigensolver: 33.00 MiB
      Projections: 0.01 MiB
      Projectors: 5.61 MiB

Total number of cores used: 1

Number of atoms: 3
Number of atomic orbitals: 53
Number of bands in calculation: 21
Bands to converge: occupied states only
Number of valence electrons: 21

... initialized

Initializing position-dependent things.

Density initialized from atomic densities
Creating initial wave functions:
  21 bands from LCAO basis set

     .---------------.  
    /|               |  
   / |               |  
  /  |               |  
 *   |               |  
 |   |               |  
 |   |N    Hf  C     |  
 |   |               |  
 |   .---------------.  
 |  /               /   
 | /               /    
 |/               /     
 *---------------*      

Positions:
   0 Hf     3.200000    3.425000    3.250000    ( 0.0000,  0.0000,  0.0000)
   1 N      1.450000    3.075000    3.250000    ( 0.0000,  0.0000,  0.0000)
   2 C      5.050000    3.075000    3.250000    ( 0.0000,  0.0000,  0.0000)

Unit cell:
           periodic     x           y           z      points  spacing
  1. axis:    no     6.500000    0.000000    0.000000    56     0.1161
  2. axis:    no     0.000000    6.500000    0.000000    56     0.1161
  3. axis:    no     0.000000    0.000000    6.500000    56     0.1161

  Lengths:   6.500000   6.500000   6.500000
  Angles:   90.000000  90.000000  90.000000

Effective grid spacing dv^(1/3) = 0.1161

                     log10-error:    total        iterations:
           time      wfs    density  energy       fermi  poisson
iter:   1  14:13:30  +3.52   +inf  -502.205742    0      13     
iter:   2  14:13:32  +3.96   +inf  -994.636975    0             
iter:   3  14:13:35  +4.08   +inf  -1517.455513    0             
iter:   4  14:13:57  +3.10  -0.01    10.284123    0      14     
iter:   5  14:14:19  +3.29  -0.17    17.250051    0      12     
iter:   6  14:14:41  +2.89  -0.39     1.583707    0      12     
iter:   7  14:15:03  +2.79  -0.61   -28.641364    0      13     
iter:   8  14:15:25  +2.09  -0.43   -22.336506    0      12     
iter:   9  14:15:46  +1.70  -0.60   -17.734692    0      11     
iter:  10  14:16:08  +1.20  -0.75   -18.308292    0      10     
iter:  11  14:16:29  +0.66  -0.90   -18.147256    0      10     
iter:  12  14:16:50  +0.50  -0.95   -17.585466    0      9      
iter:  13  14:17:11  +0.21  -1.26   -17.926518    0      8      
iter:  14  14:17:33  -0.46  -1.58   -18.102933    0      7      
iter:  15  14:17:54  -0.85  -1.87   -18.129066    0      6      
iter:  16  14:18:14  -1.38  -2.03   -18.137297    0      6      
iter:  17  14:18:35  -1.73  -2.22   -18.142411    0      6      
iter:  18  14:18:56  -2.02  -2.46   -18.144756    0      5      
iter:  19  14:19:16  -2.29  -2.62   -18.146872    0      5      
iter:  20  14:19:36  -2.52  -3.05   -18.147473    0      4      
iter:  21  14:19:56  -3.28  -3.14   -18.147776    0      3      
iter:  22  14:20:17  -3.41  -3.19   -18.147999    0      4      
iter:  23  14:20:37  -3.45  -3.50   -18.148105    0      3      
iter:  24  14:20:57  -3.97  -3.63   -18.148164    0      3      
iter:  25  14:21:17  -3.96  -3.75   -18.148201    0      3      
iter:  26  14:21:37  -4.28  -3.92   -18.148198    0      2      
iter:  27  14:21:57  -4.26  -4.09   -18.148246    0      2      
iter:  28  14:22:16  -4.39  -4.38   -18.148256    0      2      
iter:  29  14:22:36  -4.82  -4.44   -18.148269    0      2      
iter:  30  14:22:56  -5.03  -4.53   -18.148274    0      2      
iter:  31  14:23:15  -5.23  -4.85   -18.148298    0      1      
iter:  32  14:23:35  -5.68  -4.99   -18.148269    0      1      
iter:  33  14:23:54  -6.30  -4.95   -18.148236    0      1      
iter:  34  14:24:14  -6.61  -4.69   -18.148258    0      1      
iter:  35  14:24:33  -6.22  -4.83   -18.148252    0      1      
iter:  36  14:24:52  -6.07  -5.04   -18.148240    0      1      
iter:  37  14:25:12  -6.42  -5.41   -18.148242    0      1      
iter:  38  14:25:31  -7.21  -5.45   -18.148250    0      1      
iter:  39  14:25:50  -7.24  -5.55   -18.148249    0      1      
iter:  40  14:26:10  -7.45  -5.75   -18.148251    0      1      

Converged after 40 iterations.

Dipole moment: (0.247886, 0.844188, 0.000000) |e|*Ang

Energy contributions relative to reference atoms: (reference = -412395.464894)

Kinetic:        +23.233805
Potential:      -13.806534
External:        +0.000000
XC:             -27.568114
Entropy (-ST):   +0.000000
Local:           -0.007408
--------------------------
Free energy:    -18.148251
Extrapolated:   -18.148251

Fermi level: -3.75318

 Band  Eigenvalues  Occupancy
    0    -66.75527    2.00000
    1    -35.45247    2.00000
    2    -35.41616    2.00000
    3    -35.32083    2.00000
    4    -16.71358    2.00000
    5    -12.11534    2.00000
    6     -5.80745    2.00000
    7     -5.77935    2.00000
    8     -5.09685    2.00000
    9     -3.90649    2.00000
   10     -3.75318    1.00000
   11     -2.40573    0.00000
   12     -1.32498    0.00000
   13     -1.26383    0.00000
   14     -1.20171    0.00000
   15      2.54365    0.00000
   16      2.71767    0.00000
   17      2.83654    0.00000
   18      4.15164    0.00000
   19      5.86332    0.00000
   20      7.95023    0.00000

Writing to 3_27462_Pm_M06-L_R25_1536934380.gpw (mode='all')

Timing:                              incl.     excl.
-----------------------------------------------------------
Hamiltonian:                        20.499     0.000   0.0% |
 Atomic:                             2.782     0.001   0.0% |
  XC Correction:                     2.781     2.781   0.4% |
 Calculate atomic Hamiltonians:      0.010     0.010   0.0% |
 Communicate:                        0.000     0.000   0.0% |
 Hartree integrate/restrict:         0.020     0.020   0.0% |
 Initialize Hamiltonian:             0.000     0.000   0.0% |
 Poisson:                            2.987     2.987   0.4% |
 XC 3D grid:                        14.693    14.693   1.9% ||
 vbar:                               0.006     0.006   0.0% |
LCAO initialization:                 3.681     2.451   0.3% |
 LCAO eigensolver:                   0.140     0.000   0.0% |
  Calculate projections:             0.000     0.000   0.0% |
  DenseAtomicCorrection:             0.000     0.000   0.0% |
  Distribute overlap matrix:         0.000     0.000   0.0% |
  Orbital Layouts:                   0.001     0.001   0.0% |
  Potential matrix:                  0.138     0.138   0.0% |
 LCAO to grid:                       0.248     0.248   0.0% |
 Set positions (LCAO WFS):           0.842     0.000   0.0% |
  Basic WFS set positions:           0.000     0.000   0.0% |
  Basis functions set positions:     0.000     0.000   0.0% |
  TCI: Calculate S, T, P:            0.842     0.842   0.1% |
SCF-cycle:                         764.243     0.029   0.0% |
 CG:                                94.669    26.250   3.3% ||
  Apply hamiltonian:                28.765    28.765   3.6% ||
  CG: orthonormalize:               14.331     7.528   1.0% |
   CG: overlap:                      6.649     6.649   0.8% |
   CG: overlap2:                     0.153     0.153   0.0% |
  Subspace diag:                    25.324     0.003   0.0% |
   calc_h_matrix:                   18.182     3.319   0.4% |
    Apply hamiltonian:              14.863    14.863   1.9% ||
   diagonalize:                      0.010     0.010   0.0% |
   rotate_psi:                       7.129     7.129   0.9% |
 Density:                            1.915     0.001   0.0% |
  Atomic density matrices:           0.026     0.026   0.0% |
  Mix:                               1.386     1.386   0.2% |
  Multipole moments:                 0.007     0.007   0.0% |
  Pseudo density:                    0.494     0.494   0.1% |
   Symmetrize density:               0.001     0.001   0.0% |
 Hamiltonian:                      667.506     0.004   0.0% |
  Atomic:                           62.675     0.035   0.0% |
   XC Correction:                   62.640    62.640   7.9% |--|
  Calculate atomic Hamiltonians:     0.369     0.369   0.0% |
  Communicate:                       0.000     0.000   0.0% |
  Hartree integrate/restrict:        0.769     0.769   0.1% |
  Poisson:                          44.041    44.041   5.6% |-|
  XC 3D grid:                      559.488   559.488  70.8% |---------------------------|
  vbar:                              0.159     0.159   0.0% |
 Orthonormalize:                     0.125     0.000   0.0% |
  calc_s_matrix:                     0.041     0.041   0.0% |
  inverse-cholesky:                  0.000     0.000   0.0% |
  projections:                       0.032     0.032   0.0% |
  rotate_psi_s:                      0.052     0.052   0.0% |
Set symmetry:                        0.001     0.001   0.0% |
Other:                               1.266     1.266   0.2% |
-----------------------------------------------------------
Total:                                       789.690 100.0%

Memory usage: 540.84 MiB
Date: Fri Sep 14 14:26:10 2018
