
  ___ ___ ___ _ _ _  
 |   |   |_  | | | | 
 | | | | | . | | | | 
 |__ |  _|___|_____|  1.4.0
 |___|_|             

User:   ???@93e7e28806d8
Date:   Fri Sep 14 17:00:34 2018
Arch:   x86_64
Pid:    1629
Python: 3.7.0
gpaw:   /app/gpaw/software/venv/lib/python3.7/site-packages/gpaw
_gpaw:  /app/gpaw/software/venv/lib/python3.7/site-packages/
        _gpaw.cpython-37m-x86_64-linux-gnu.so
ase:    /app/gpaw/software/venv/lib/python3.7/site-packages/ase (version 3.16.2)
numpy:  /app/gpaw/software/venv/lib/python3.7/site-packages/numpy (version 1.15.0)
scipy:  /app/gpaw/software/venv/lib/python3.7/site-packages/scipy (version 1.1.0)
units:  Angstrom and eV
cores:  1

Input parameters:
  basis: dzp
  eigensolver: cg
  gpts: [56 56 56]
  maxiter: 150
  mixer: {backend: pulay,
          beta: None,
          method: separate,
          nmaxold: None,
          weight: None}
  xc: M06-L

System changes: positions, numbers, cell, pbc, initial_charges, initial_magmoms 

Initialize ...

Hf-setup:
  name: Hafnium
  id: d03a45b6fa1dd7f07e443d1513edf499
  Z: 72
  valence: 12
  core: 60
  charge: 0.0
  file: /app/gpaw/datasets/Hf.PBE
  cutoffs: 1.30(comp), 2.36(filt), 4.02(core), lmax=2
  valence states:
                energy  radius
    5s(2.00)   -66.831   1.397
    6s(2.00)    -5.097   1.397
    5p(6.00)   -35.599   1.307
    6p(0.00)    -1.401   1.307
    5d(2.00)    -2.699   1.334
    *d          24.513   1.334

  LCAO basis set for Hf:
    Name: dzp
    File: /app/gpaw/datasets/Hf.dzp.basis
    Number of radial functions: 9
    Number of spherical harmonics: 27
      l=0, rc=3.5625 Bohr: 5s-sz confined orbital
      l=0, rc=9.5469 Bohr: 6s-sz confined orbital
      l=1, rc=4.3125 Bohr: 5p-sz confined orbital
      l=2, rc=8.5000 Bohr: 5d-sz confined orbital
      l=0, rc=2.2656 Bohr: 5s-dz split-valence wave
      l=0, rc=5.7812 Bohr: 6s-dz split-valence wave
      l=1, rc=2.6406 Bohr: 5p-dz split-valence wave
      l=2, rc=4.9844 Bohr: 5d-dz split-valence wave
      l=3, rc=8.5000 Bohr: f-type Gaussian polarization

N-setup:
  name: Nitrogen
  id: 45c8c9c739e7b131496b9fd2deb94bff
  Z: 7
  valence: 5
  core: 2
  charge: 0.0
  file: /app/gpaw/datasets/N.PBE
  cutoffs: 0.58(comp), 1.11(filt), 0.96(core), lmax=2
  valence states:
                energy  radius
    2s(2.00)   -18.583   0.603
    2p(3.00)    -7.089   0.529
    *s           8.629   0.603
    *p          20.123   0.529
    *d           0.000   0.577

  LCAO basis set for N:
    Name: dzp
    File: /app/gpaw/datasets/N.dzp.basis
    Number of radial functions: 5
    Number of spherical harmonics: 13
      l=0, rc=4.8594 Bohr: 2s-sz confined orbital
      l=1, rc=6.0625 Bohr: 2p-sz confined orbital
      l=0, rc=2.6094 Bohr: 2s-dz split-valence wave
      l=1, rc=3.2656 Bohr: 2p-dz split-valence wave
      l=2, rc=6.0625 Bohr: d-type Gaussian polarization

C-setup:
  name: Carbon
  id: 2f012631b351e3618121587a96c50fca
  Z: 6
  valence: 4
  core: 2
  charge: 0.0
  file: /app/gpaw/datasets/C.PBE
  cutoffs: 0.64(comp), 1.14(filt), 1.14(core), lmax=2
  valence states:
                energy  radius
    2s(2.00)   -13.751   0.635
    2p(2.00)    -5.285   0.635
    *s          13.461   0.635
    *p          21.927   0.635
    *d           0.000   0.635

  LCAO basis set for C:
    Name: dzp
    File: /app/gpaw/datasets/C.dzp.basis
    Number of radial functions: 5
    Number of spherical harmonics: 13
      l=0, rc=5.5938 Bohr: 2s-sz confined orbital
      l=1, rc=6.8750 Bohr: 2p-sz confined orbital
      l=0, rc=3.0938 Bohr: 2s-dz split-valence wave
      l=1, rc=3.8125 Bohr: 2p-dz split-valence wave
      l=2, rc=6.8750 Bohr: d-type Gaussian polarization

Reference energy: -412395.464894

Spin-paired calculation

Occupation numbers:
  Fermi-Dirac: width=0.0000 eV

Convergence criteria:
  Maximum total energy change: 0.0005 eV / electron
  Maximum integral of absolute density change: 0.0001 electrons
  Maximum integral of absolute eigenstate change: 4e-08 eV^2
  Maximum number of iterations: 150

Symmetries present (total): 1

  ( 1  0  0)
  ( 0  1  0)
  ( 0  0  1)

1 k-point (Gamma)
1 k-point in the irreducible part of the Brillouin zone
       k-points in crystal coordinates                weights
   0:     0.00000000    0.00000000    0.00000000          1/1

Wave functions: Uniform real-space grid
  Kinetic energy operator: 6*3+1=19 point O(h^6) finite-difference Laplacian
  ScaLapack parameters: grid=1x1, blocksize=None 

Eigensolver
   CG(niter=4, rtol=3.0e-01) 

Densities:
  Coarse grid: 56*56*56 grid
  Fine grid: 112*112*112 grid
  Total Charge: 0.000000 

Density mixing:
  Method: separate
  Backend: pulay
  Linear mixing parameter: 0.25
  Mixing with 3 old densities
  No damping of long wave oscillations 

Hamiltonian:
  XC and Coulomb potentials evaluated on a 112*112*112 grid
  Using the M06-L Exchange-Correlation functional
  Interpolation: tri-quintic (5. degree polynomial)
  Poisson solver: Jacobi solver with 5 multi-grid levels
    Coarsest grid: 7 x 7 x 7 points
    Stencil: 6*3+1=19 point O(h^6) finite-difference Laplacian
    Max iterations: 1000
    Tolerance: 2.000000e-10 

Memory estimate:
  Process memory now: 41.61 MiB
  Calculator: 198.44 MiB
    Density: 80.53 MiB
      Arrays: 33.84 MiB
      Localized functions: 39.07 MiB
      Mixer: 7.62 MiB
    Hamiltonian: 52.63 MiB
      Arrays: 22.14 MiB
      XC: 2.54 MiB
      Poisson: 25.33 MiB
      vbar: 2.62 MiB
    Wavefunctions: 65.28 MiB
      Arrays psit_nG: 26.66 MiB
      Eigensolver: 33.00 MiB
      Projections: 0.01 MiB
      Projectors: 5.61 MiB

Total number of cores used: 1

Number of atoms: 3
Number of atomic orbitals: 53
Number of bands in calculation: 21
Bands to converge: occupied states only
Number of valence electrons: 21

... initialized

Initializing position-dependent things.

Density initialized from atomic densities
Creating initial wave functions:
  21 bands from LCAO basis set

     .---------------.  
    /|               |  
   / |               |  
  /  |               |  
 *   |               |  
 |   |               |  
 |   |N    Hf  C     |  
 |   |               |  
 |   .---------------.  
 |  /               /   
 | /               /    
 |/               /     
 *---------------*      

Positions:
   0 Hf     3.165000    3.600000    3.250000    ( 0.0000,  0.0000,  0.0000)
   1 N      1.485000    2.900000    3.250000    ( 0.0000,  0.0000,  0.0000)
   2 C      5.015000    2.900000    3.250000    ( 0.0000,  0.0000,  0.0000)

Unit cell:
           periodic     x           y           z      points  spacing
  1. axis:    no     6.500000    0.000000    0.000000    56     0.1161
  2. axis:    no     0.000000    6.500000    0.000000    56     0.1161
  3. axis:    no     0.000000    0.000000    6.500000    56     0.1161

  Lengths:   6.500000   6.500000   6.500000
  Angles:   90.000000  90.000000  90.000000

Effective grid spacing dv^(1/3) = 0.1161

                     log10-error:    total        iterations:
           time      wfs    density  energy       fermi  poisson
iter:   1  17:01:03  +3.43   +inf  -466.106770    0      13     
iter:   2  17:01:06  +3.32   +inf  -720.818907    0             
iter:   3  17:01:08  +2.50   +inf  -820.734928    0             
iter:   4  17:01:30  +2.78  -0.21   -91.284747    0      12     
iter:   5  17:01:52  +2.39  -0.31   -10.620474    0      11     
iter:   6  17:02:13  +2.83  -0.54    -1.647439    0      11     
iter:   7  17:02:35  +2.64  -0.57   -55.393363    0      10     
iter:   8  17:02:57  +1.91  -0.44   -16.484584    0      11     
iter:   9  17:03:18  +1.70  -0.56   -51.718464    0      12     
iter:  10  17:03:41  +2.57  -0.44  -111.196453    0      12     
iter:  11  17:04:03  +1.82  -0.44    17.191154    0      10     
iter:  12  17:04:26  +3.79  -0.36  -415.397894    0      10     
iter:  13  17:04:48  +2.96  -0.27   117.386846    0      11     
iter:  14  17:05:10  +2.93  -0.40     4.302578    0      10     
iter:  15  17:05:32  +2.39  -0.65    -2.607431    0      10     
iter:  16  17:05:53  +2.28  -0.56   -27.771952    0      9      
iter:  17  17:06:15  +1.66  -0.50   -20.172912    0      10     
iter:  18  17:06:37  +1.25  -0.55   -16.814336    0      10     
iter:  19  17:06:59  +1.14  -0.73   -18.050278    0      9      
iter:  20  17:07:21  +0.69  -0.83   -16.874287    0      10     
iter:  21  17:07:43  +0.36  -1.21   -17.281082    0      8      
iter:  22  17:08:04  -0.17  -1.39   -17.482980    0      7      
iter:  23  17:08:31  -0.06  -1.46   -17.770452    0      7      
iter:  24  17:08:54  -0.41  -1.54   -18.035553    0      7      
iter:  25  17:09:16  -0.26  -1.59   -18.232712    0      6      
iter:  26  17:09:37  -0.67  -1.62   -18.395914    0      5      
iter:  27  17:09:59  +0.24  -1.53   -18.489141    0      6      
iter:  28  17:10:22  -0.57  -1.46   -18.568879    0      6      
iter:  29  17:10:43  +0.06  -1.38   -18.604135    0      8      
iter:  30  17:11:05  -0.23  -1.46   -18.629258    0      7      
iter:  31  17:11:26  -0.77  -1.58   -18.655143    0      7      
iter:  32  17:11:48  -0.99  -1.83   -18.676000    0      7      
iter:  33  17:12:09  -1.52  -2.01   -18.685960    0      6      
iter:  34  17:12:30  -1.99  -2.12   -18.687894    0      5      
iter:  35  17:12:51  -1.79  -2.24   -18.691308    0      6      
iter:  36  17:13:12  -2.38  -2.52   -18.691988    0      5      
iter:  37  17:13:33  -2.82  -2.68   -18.692683    0      5      
iter:  38  17:13:54  -2.71  -2.75   -18.692893    0      5      
iter:  39  17:14:15  -3.46  -3.08   -18.692898    0      3      
iter:  40  17:14:35  -3.85  -3.18   -18.693023    0      4      
iter:  41  17:14:56  -4.03  -3.51   -18.693056    0      3      
iter:  42  17:15:17  -4.24  -3.63   -18.693100    0      2      
iter:  43  17:15:37  -4.53  -3.68   -18.693104    0      3      
iter:  44  17:15:57  -4.92  -4.02   -18.693132    0      2      
iter:  45  17:16:18  -5.23  -4.14   -18.693129    0      2      
iter:  46  17:16:38  -5.36  -4.22   -18.693138    0      2      
iter:  47  17:16:59  -5.50  -4.44   -18.693135    0      2      
iter:  48  17:17:19  -5.82  -4.56   -18.693138    0      1      
iter:  49  17:17:39  -6.21  -4.58   -18.693158    0      1      
iter:  50  17:17:58  -5.61  -4.71   -18.693140    0      2      
iter:  51  17:18:18  -6.01  -5.23   -18.693130    0      1      
iter:  52  17:18:40  -6.60  -5.08   -18.693134    0      1      
iter:  53  17:19:01  -6.78  -5.24   -18.693127    0      1      
iter:  54  17:19:20  -7.16  -5.39   -18.693126    0      1      
iter:  55  17:19:40  -7.21  -5.73   -18.693124    0      1      
iter:  56  17:19:59  -7.64  -5.96   -18.693124    0      1      

Converged after 56 iterations.

Dipole moment: (0.310767, 1.128588, -0.000000) |e|*Ang

Energy contributions relative to reference atoms: (reference = -412395.464894)

Kinetic:        +11.426628
Potential:       -4.497541
External:        +0.000000
XC:             -25.583500
Entropy (-ST):   +0.000000
Local:           -0.038711
--------------------------
Free energy:    -18.693124
Extrapolated:   -18.693124

Fermi level: -3.68808

 Band  Eigenvalues  Occupancy
    0    -66.56706    2.00000
    1    -35.24582    2.00000
    2    -35.18333    2.00000
    3    -35.00805    2.00000
    4    -16.49292    2.00000
    5    -12.45531    2.00000
    6     -5.41776    2.00000
    7     -5.36884    2.00000
    8     -5.09038    2.00000
    9     -4.06173    2.00000
   10     -3.68808    1.00000
   11     -2.62980    0.00000
   12     -1.91551    0.00000
   13     -0.96315    0.00000
   14     -0.51777    0.00000
   15      1.99138    0.00000
   16      2.09487    0.00000
   17      2.92978    0.00000
   18      4.06964    0.00000
   19      6.43934    0.00000
   20      7.55216    0.00000

Writing to 3_27462_Pm_M06-L_R39_1536944434.gpw (mode='all')

Timing:                              incl.     excl.
-----------------------------------------------------------
Hamiltonian:                        20.320     0.000   0.0% |
 Atomic:                             2.734     0.001   0.0% |
  XC Correction:                     2.733     2.733   0.2% |
 Calculate atomic Hamiltonians:      0.009     0.009   0.0% |
 Communicate:                        0.000     0.000   0.0% |
 Hartree integrate/restrict:         0.020     0.020   0.0% |
 Initialize Hamiltonian:             0.000     0.000   0.0% |
 Poisson:                            2.967     2.967   0.3% |
 XC 3D grid:                        14.583    14.583   1.3% ||
 vbar:                               0.006     0.006   0.0% |
LCAO initialization:                 3.592     2.387   0.2% |
 LCAO eigensolver:                   0.138     0.000   0.0% |
  Calculate projections:             0.000     0.000   0.0% |
  DenseAtomicCorrection:             0.000     0.000   0.0% |
  Distribute overlap matrix:         0.000     0.000   0.0% |
  Orbital Layouts:                   0.001     0.001   0.0% |
  Potential matrix:                  0.136     0.136   0.0% |
 LCAO to grid:                       0.242     0.242   0.0% |
 Set positions (LCAO WFS):           0.824     0.000   0.0% |
  Basic WFS set positions:           0.000     0.000   0.0% |
  Basis functions set positions:     0.000     0.000   0.0% |
  TCI: Calculate S, T, P:            0.823     0.823   0.1% |
SCF-cycle:                        1139.869     0.039   0.0% |
 CG:                               147.863    40.281   3.5% ||
  Apply hamiltonian:                44.365    44.365   3.8% |-|
  CG: orthonormalize:               23.108    12.187   1.0% |
   CG: overlap:                     10.703    10.703   0.9% |
   CG: overlap2:                     0.218     0.218   0.0% |
  Subspace diag:                    40.110     0.005   0.0% |
   calc_h_matrix:                   28.543     5.599   0.5% |
    Apply hamiltonian:              22.943    22.943   2.0% ||
   diagonalize:                      0.014     0.014   0.0% |
   rotate_psi:                      11.548    11.548   1.0% |
 Density:                            2.891     0.001   0.0% |
  Atomic density matrices:           0.038     0.038   0.0% |
  Mix:                               2.085     2.085   0.2% |
  Multipole moments:                 0.010     0.010   0.0% |
  Pseudo density:                    0.757     0.756   0.1% |
   Symmetrize density:               0.001     0.001   0.0% |
 Hamiltonian:                      988.956     0.007   0.0% |
  Atomic:                           92.759     0.053   0.0% |
   XC Correction:                   92.706    92.706   8.0% |--|
  Calculate atomic Hamiltonians:     0.568     0.568   0.0% |
  Communicate:                       0.000     0.000   0.0% |
  Hartree integrate/restrict:        1.359     1.359   0.1% |
  Poisson:                          82.683    82.683   7.1% |--|
  XC 3D grid:                      811.326   811.326  69.6% |---------------------------|
  vbar:                              0.254     0.254   0.0% |
 Orthonormalize:                     0.120     0.000   0.0% |
  calc_s_matrix:                     0.039     0.039   0.0% |
  inverse-cholesky:                  0.000     0.000   0.0% |
  projections:                       0.031     0.031   0.0% |
  rotate_psi_s:                      0.050     0.050   0.0% |
Set symmetry:                        0.001     0.001   0.0% |
Other:                               1.237     1.237   0.1% |
-----------------------------------------------------------
Total:                                      1165.018 100.0%

Memory usage: 540.62 MiB
Date: Fri Sep 14 17:19:59 2018
