
  ___ ___ ___ _ _ _  
 |   |   |_  | | | | 
 | | | | | . | | | | 
 |__ |  _|___|_____|  1.4.0
 |___|_|             

User:   ???@93e7e28806d8
Date:   Fri Sep 14 17:40:40 2018
Arch:   x86_64
Pid:    3028
Python: 3.7.0
gpaw:   /app/gpaw/software/venv/lib/python3.7/site-packages/gpaw
_gpaw:  /app/gpaw/software/venv/lib/python3.7/site-packages/
        _gpaw.cpython-37m-x86_64-linux-gnu.so
ase:    /app/gpaw/software/venv/lib/python3.7/site-packages/ase (version 3.16.2)
numpy:  /app/gpaw/software/venv/lib/python3.7/site-packages/numpy (version 1.15.0)
scipy:  /app/gpaw/software/venv/lib/python3.7/site-packages/scipy (version 1.1.0)
units:  Angstrom and eV
cores:  1

Input parameters:
  basis: dzp
  eigensolver: cg
  gpts: [56 56 56]
  maxiter: 150
  mixer: {backend: pulay,
          beta: None,
          method: separate,
          nmaxold: None,
          weight: None}
  xc: M06-L

System changes: positions, numbers, cell, pbc, initial_charges, initial_magmoms 

Initialize ...

Hf-setup:
  name: Hafnium
  id: d03a45b6fa1dd7f07e443d1513edf499
  Z: 72
  valence: 12
  core: 60
  charge: 0.0
  file: /app/gpaw/datasets/Hf.PBE
  cutoffs: 1.30(comp), 2.36(filt), 4.02(core), lmax=2
  valence states:
                energy  radius
    5s(2.00)   -66.831   1.397
    6s(2.00)    -5.097   1.397
    5p(6.00)   -35.599   1.307
    6p(0.00)    -1.401   1.307
    5d(2.00)    -2.699   1.334
    *d          24.513   1.334

  LCAO basis set for Hf:
    Name: dzp
    File: /app/gpaw/datasets/Hf.dzp.basis
    Number of radial functions: 9
    Number of spherical harmonics: 27
      l=0, rc=3.5625 Bohr: 5s-sz confined orbital
      l=0, rc=9.5469 Bohr: 6s-sz confined orbital
      l=1, rc=4.3125 Bohr: 5p-sz confined orbital
      l=2, rc=8.5000 Bohr: 5d-sz confined orbital
      l=0, rc=2.2656 Bohr: 5s-dz split-valence wave
      l=0, rc=5.7812 Bohr: 6s-dz split-valence wave
      l=1, rc=2.6406 Bohr: 5p-dz split-valence wave
      l=2, rc=4.9844 Bohr: 5d-dz split-valence wave
      l=3, rc=8.5000 Bohr: f-type Gaussian polarization

N-setup:
  name: Nitrogen
  id: 45c8c9c739e7b131496b9fd2deb94bff
  Z: 7
  valence: 5
  core: 2
  charge: 0.0
  file: /app/gpaw/datasets/N.PBE
  cutoffs: 0.58(comp), 1.11(filt), 0.96(core), lmax=2
  valence states:
                energy  radius
    2s(2.00)   -18.583   0.603
    2p(3.00)    -7.089   0.529
    *s           8.629   0.603
    *p          20.123   0.529
    *d           0.000   0.577

  LCAO basis set for N:
    Name: dzp
    File: /app/gpaw/datasets/N.dzp.basis
    Number of radial functions: 5
    Number of spherical harmonics: 13
      l=0, rc=4.8594 Bohr: 2s-sz confined orbital
      l=1, rc=6.0625 Bohr: 2p-sz confined orbital
      l=0, rc=2.6094 Bohr: 2s-dz split-valence wave
      l=1, rc=3.2656 Bohr: 2p-dz split-valence wave
      l=2, rc=6.0625 Bohr: d-type Gaussian polarization

C-setup:
  name: Carbon
  id: 2f012631b351e3618121587a96c50fca
  Z: 6
  valence: 4
  core: 2
  charge: 0.0
  file: /app/gpaw/datasets/C.PBE
  cutoffs: 0.64(comp), 1.14(filt), 1.14(core), lmax=2
  valence states:
                energy  radius
    2s(2.00)   -13.751   0.635
    2p(2.00)    -5.285   0.635
    *s          13.461   0.635
    *p          21.927   0.635
    *d           0.000   0.635

  LCAO basis set for C:
    Name: dzp
    File: /app/gpaw/datasets/C.dzp.basis
    Number of radial functions: 5
    Number of spherical harmonics: 13
      l=0, rc=5.5938 Bohr: 2s-sz confined orbital
      l=1, rc=6.8750 Bohr: 2p-sz confined orbital
      l=0, rc=3.0938 Bohr: 2s-dz split-valence wave
      l=1, rc=3.8125 Bohr: 2p-dz split-valence wave
      l=2, rc=6.8750 Bohr: d-type Gaussian polarization

Reference energy: -412395.464894

Spin-paired calculation

Occupation numbers:
  Fermi-Dirac: width=0.0000 eV

Convergence criteria:
  Maximum total energy change: 0.0005 eV / electron
  Maximum integral of absolute density change: 0.0001 electrons
  Maximum integral of absolute eigenstate change: 4e-08 eV^2
  Maximum number of iterations: 150

Symmetries present (total): 1

  ( 1  0  0)
  ( 0  1  0)
  ( 0  0  1)

1 k-point (Gamma)
1 k-point in the irreducible part of the Brillouin zone
       k-points in crystal coordinates                weights
   0:     0.00000000    0.00000000    0.00000000          1/1

Wave functions: Uniform real-space grid
  Kinetic energy operator: 6*3+1=19 point O(h^6) finite-difference Laplacian
  ScaLapack parameters: grid=1x1, blocksize=None 

Eigensolver
   CG(niter=4, rtol=3.0e-01) 

Densities:
  Coarse grid: 56*56*56 grid
  Fine grid: 112*112*112 grid
  Total Charge: 0.000000 

Density mixing:
  Method: separate
  Backend: pulay
  Linear mixing parameter: 0.25
  Mixing with 3 old densities
  No damping of long wave oscillations 

Hamiltonian:
  XC and Coulomb potentials evaluated on a 112*112*112 grid
  Using the M06-L Exchange-Correlation functional
  Interpolation: tri-quintic (5. degree polynomial)
  Poisson solver: Jacobi solver with 5 multi-grid levels
    Coarsest grid: 7 x 7 x 7 points
    Stencil: 6*3+1=19 point O(h^6) finite-difference Laplacian
    Max iterations: 1000
    Tolerance: 2.000000e-10 

Memory estimate:
  Process memory now: 41.74 MiB
  Calculator: 198.44 MiB
    Density: 80.53 MiB
      Arrays: 33.84 MiB
      Localized functions: 39.07 MiB
      Mixer: 7.62 MiB
    Hamiltonian: 52.63 MiB
      Arrays: 22.14 MiB
      XC: 2.54 MiB
      Poisson: 25.33 MiB
      vbar: 2.62 MiB
    Wavefunctions: 65.28 MiB
      Arrays psit_nG: 26.66 MiB
      Eigensolver: 33.00 MiB
      Projections: 0.01 MiB
      Projectors: 5.61 MiB

Total number of cores used: 1

Number of atoms: 3
Number of atomic orbitals: 53
Number of bands in calculation: 21
Bands to converge: occupied states only
Number of valence electrons: 21

... initialized

Initializing position-dependent things.

Density initialized from atomic densities
Creating initial wave functions:
  21 bands from LCAO basis set

     .---------------.  
    /|               |  
   / |               |  
  /  |               |  
 *   |               |  
 |   |               |  
 |   | N   Hf  C     |  
 |   |               |  
 |   .---------------.  
 |  /               /   
 | /               /    
 |/               /     
 *---------------*      

Positions:
   0 Hf     3.190000    3.575000    3.250000    ( 0.0000,  0.0000,  0.0000)
   1 N      1.580000    2.925000    3.250000    ( 0.0000,  0.0000,  0.0000)
   2 C      4.920000    2.925000    3.250000    ( 0.0000,  0.0000,  0.0000)

Unit cell:
           periodic     x           y           z      points  spacing
  1. axis:    no     6.500000    0.000000    0.000000    56     0.1161
  2. axis:    no     0.000000    6.500000    0.000000    56     0.1161
  3. axis:    no     0.000000    0.000000    6.500000    56     0.1161

  Lengths:   6.500000   6.500000   6.500000
  Angles:   90.000000  90.000000  90.000000

Effective grid spacing dv^(1/3) = 0.1161

                     log10-error:    total        iterations:
           time      wfs    density  energy       fermi  poisson
iter:   1  17:41:09  +3.54   +inf  -615.093892    0      13     
iter:   2  17:41:12  +4.16   +inf  -1572.287454    0             
iter:   3  17:41:14  +3.66   +inf  -2231.117420    0             
iter:   4  17:41:36  +3.80  +0.06  -104.250039    0      14     
iter:   5  17:41:57  +3.07  -0.19   -46.416537    0      12     
iter:   6  17:42:18  +2.62  -0.40   -45.064343    0      12     
iter:   7  17:42:40  +2.54  -0.49   -34.517322    0      13     
iter:   8  17:43:01  +2.00  -0.43   -25.727996    0      11     
iter:   9  17:43:22  +1.67  -0.53   -18.828816    0      10     
iter:  10  17:43:43  +0.94  -0.79   -19.193397    0      10     
iter:  11  17:44:04  +0.45  -0.96   -18.874627    0      9      
iter:  12  17:44:25  -0.04  -1.18   -19.029839    0      9      
iter:  13  17:44:46  -0.65  -1.39   -19.145871    0      7      
iter:  14  17:45:06  -0.95  -1.51   -19.243892    0      7      
iter:  15  17:45:27  -0.76  -1.72   -19.318237    0      8      
iter:  16  17:45:47  -1.15  -2.32   -19.322806    0      6      
iter:  17  17:46:06  -1.68  -2.37   -19.324321    0      5      
iter:  18  17:46:26  -1.93  -2.48   -19.327728    0      6      
iter:  19  17:46:46  -2.48  -2.90   -19.328760    0      4      
iter:  20  17:47:05  -3.00  -3.02   -19.329078    0      4      
iter:  21  17:47:25  -3.47  -3.08   -19.329279    0      4      
iter:  22  17:47:44  -3.56  -3.28   -19.329400    0      4      
iter:  23  17:48:03  -3.90  -3.53   -19.329353    0      3      
iter:  24  17:48:23  -4.22  -3.64   -19.329430    0      3      
iter:  25  17:48:41  -4.48  -4.06   -19.329388    0      2      
iter:  26  17:49:01  -4.94  -4.17   -19.329405    0      2      
iter:  27  17:49:20  -5.40  -4.27   -19.329421    0      2      
iter:  28  17:49:39  -5.57  -4.33   -19.329432    0      2      
iter:  29  17:49:57  -5.76  -4.75   -19.329434    0      1      
iter:  30  17:50:16  -5.93  -4.76   -19.329473    0      1      
iter:  31  17:50:35  -6.11  -5.10   -19.329440    0      1      
iter:  32  17:50:54  -6.66  -5.19   -19.329432    0      1      
iter:  33  17:51:12  -7.01  -5.44   -19.329421    0      1      
iter:  34  17:51:31  -7.60  -5.65   -19.329418    0      1      

Converged after 34 iterations.

Dipole moment: (0.228579, 1.113807, -0.000000) |e|*Ang

Energy contributions relative to reference atoms: (reference = -412395.464894)

Kinetic:        +26.517035
Potential:      -17.432755
External:        +0.000000
XC:             -28.471768
Entropy (-ST):   +0.000000
Local:           +0.058069
--------------------------
Free energy:    -19.329418
Extrapolated:   -19.329418

Fermi level: -3.76763

 Band  Eigenvalues  Occupancy
    0    -66.28440    2.00000
    1    -35.20888    2.00000
    2    -34.95987    2.00000
    3    -34.94676    2.00000
    4    -16.66501    2.00000
    5    -12.35519    2.00000
    6     -5.90152    2.00000
    7     -5.75727    2.00000
    8     -5.55465    2.00000
    9     -4.26826    2.00000
   10     -3.76763    1.00000
   11     -2.30064    0.00000
   12     -1.83262    0.00000
   13     -0.75969    0.00000
   14     -0.30415    0.00000
   15      2.53516    0.00000
   16      2.76080    0.00000
   17      3.22193    0.00000
   18      4.13887    0.00000
   19      6.90418    0.00000
   20      7.76268    0.00000

Writing to 3_27462_Pm_M06-L_R46_1536946840.gpw (mode='all')

Timing:                              incl.     excl.
-----------------------------------------------------------
Hamiltonian:                        20.573     0.000   0.0% |
 Atomic:                             2.808     0.001   0.0% |
  XC Correction:                     2.807     2.807   0.4% |
 Calculate atomic Hamiltonians:      0.009     0.009   0.0% |
 Communicate:                        0.000     0.000   0.0% |
 Hartree integrate/restrict:         0.019     0.019   0.0% |
 Initialize Hamiltonian:             0.000     0.000   0.0% |
 Poisson:                            3.032     3.032   0.5% |
 XC 3D grid:                        14.696    14.696   2.3% ||
 vbar:                               0.008     0.008   0.0% |
LCAO initialization:                 3.629     2.422   0.4% |
 LCAO eigensolver:                   0.141     0.000   0.0% |
  Calculate projections:             0.000     0.000   0.0% |
  DenseAtomicCorrection:             0.000     0.000   0.0% |
  Distribute overlap matrix:         0.000     0.000   0.0% |
  Orbital Layouts:                   0.001     0.001   0.0% |
  Potential matrix:                  0.139     0.139   0.0% |
 LCAO to grid:                       0.243     0.243   0.0% |
 Set positions (LCAO WFS):           0.823     0.000   0.0% |
  Basic WFS set positions:           0.000     0.000   0.0% |
  Basis functions set positions:     0.000     0.000   0.0% |
  TCI: Calculate S, T, P:            0.822     0.822   0.1% |
SCF-cycle:                         625.684     0.021   0.0% |
 CG:                                75.639    21.376   3.3% ||
  Apply hamiltonian:                23.360    23.360   3.6% ||
  CG: orthonormalize:               11.132     5.958   0.9% |
   CG: overlap:                      5.045     5.045   0.8% |
   CG: overlap2:                     0.129     0.129   0.0% |
  Subspace diag:                    19.771     0.003   0.0% |
   calc_h_matrix:                   14.277     2.360   0.4% |
    Apply hamiltonian:              11.917    11.917   1.8% ||
   diagonalize:                      0.008     0.008   0.0% |
   rotate_psi:                       5.483     5.483   0.8% |
 Density:                            1.429     0.001   0.0% |
  Atomic density matrices:           0.021     0.021   0.0% |
  Mix:                               1.026     1.026   0.2% |
  Multipole moments:                 0.006     0.006   0.0% |
  Pseudo density:                    0.375     0.375   0.1% |
   Symmetrize density:               0.001     0.001   0.0% |
 Hamiltonian:                      548.474     0.004   0.0% |
  Atomic:                           50.812     0.029   0.0% |
   XC Correction:                   50.783    50.783   7.8% |--|
  Calculate atomic Hamiltonians:     0.305     0.305   0.0% |
  Communicate:                       0.000     0.000   0.0% |
  Hartree integrate/restrict:        0.568     0.568   0.1% |
  Poisson:                          40.372    40.372   6.2% |-|
  XC 3D grid:                      456.305   456.305  70.1% |---------------------------|
  vbar:                              0.109     0.109   0.0% |
 Orthonormalize:                     0.121     0.000   0.0% |
  calc_s_matrix:                     0.038     0.038   0.0% |
  inverse-cholesky:                  0.000     0.000   0.0% |
  projections:                       0.031     0.031   0.0% |
  rotate_psi_s:                      0.051     0.051   0.0% |
Set symmetry:                        0.001     0.001   0.0% |
Other:                               1.268     1.268   0.2% |
-----------------------------------------------------------
Total:                                       651.155 100.0%

Memory usage: 540.85 MiB
Date: Fri Sep 14 17:51:31 2018
