
  ___ ___ ___ _ _ _  
 |   |   |_  | | | | 
 | | | | | . | | | | 
 |__ |  _|___|_____|  1.4.0
 |___|_|             

User:   ???@93e7e28806d8
Date:   Fri Sep 14 16:41:52 2018
Arch:   x86_64
Pid:    1572
Python: 3.7.0
gpaw:   /app/gpaw/software/venv/lib/python3.7/site-packages/gpaw
_gpaw:  /app/gpaw/software/venv/lib/python3.7/site-packages/
        _gpaw.cpython-37m-x86_64-linux-gnu.so
ase:    /app/gpaw/software/venv/lib/python3.7/site-packages/ase (version 3.16.2)
numpy:  /app/gpaw/software/venv/lib/python3.7/site-packages/numpy (version 1.15.0)
scipy:  /app/gpaw/software/venv/lib/python3.7/site-packages/scipy (version 1.1.0)
units:  Angstrom and eV
cores:  1

Input parameters:
  basis: dzp
  eigensolver: cg
  gpts: [56 56 56]
  maxiter: 150
  mixer: {backend: pulay,
          beta: None,
          method: separate,
          nmaxold: None,
          weight: None}
  xc: M06-L

System changes: positions, numbers, cell, pbc, initial_charges, initial_magmoms 

Initialize ...

Hf-setup:
  name: Hafnium
  id: d03a45b6fa1dd7f07e443d1513edf499
  Z: 72
  valence: 12
  core: 60
  charge: 0.0
  file: /app/gpaw/datasets/Hf.PBE
  cutoffs: 1.30(comp), 2.36(filt), 4.02(core), lmax=2
  valence states:
                energy  radius
    5s(2.00)   -66.831   1.397
    6s(2.00)    -5.097   1.397
    5p(6.00)   -35.599   1.307
    6p(0.00)    -1.401   1.307
    5d(2.00)    -2.699   1.334
    *d          24.513   1.334

  LCAO basis set for Hf:
    Name: dzp
    File: /app/gpaw/datasets/Hf.dzp.basis
    Number of radial functions: 9
    Number of spherical harmonics: 27
      l=0, rc=3.5625 Bohr: 5s-sz confined orbital
      l=0, rc=9.5469 Bohr: 6s-sz confined orbital
      l=1, rc=4.3125 Bohr: 5p-sz confined orbital
      l=2, rc=8.5000 Bohr: 5d-sz confined orbital
      l=0, rc=2.2656 Bohr: 5s-dz split-valence wave
      l=0, rc=5.7812 Bohr: 6s-dz split-valence wave
      l=1, rc=2.6406 Bohr: 5p-dz split-valence wave
      l=2, rc=4.9844 Bohr: 5d-dz split-valence wave
      l=3, rc=8.5000 Bohr: f-type Gaussian polarization

N-setup:
  name: Nitrogen
  id: 45c8c9c739e7b131496b9fd2deb94bff
  Z: 7
  valence: 5
  core: 2
  charge: 0.0
  file: /app/gpaw/datasets/N.PBE
  cutoffs: 0.58(comp), 1.11(filt), 0.96(core), lmax=2
  valence states:
                energy  radius
    2s(2.00)   -18.583   0.603
    2p(3.00)    -7.089   0.529
    *s           8.629   0.603
    *p          20.123   0.529
    *d           0.000   0.577

  LCAO basis set for N:
    Name: dzp
    File: /app/gpaw/datasets/N.dzp.basis
    Number of radial functions: 5
    Number of spherical harmonics: 13
      l=0, rc=4.8594 Bohr: 2s-sz confined orbital
      l=1, rc=6.0625 Bohr: 2p-sz confined orbital
      l=0, rc=2.6094 Bohr: 2s-dz split-valence wave
      l=1, rc=3.2656 Bohr: 2p-dz split-valence wave
      l=2, rc=6.0625 Bohr: d-type Gaussian polarization

C-setup:
  name: Carbon
  id: 2f012631b351e3618121587a96c50fca
  Z: 6
  valence: 4
  core: 2
  charge: 0.0
  file: /app/gpaw/datasets/C.PBE
  cutoffs: 0.64(comp), 1.14(filt), 1.14(core), lmax=2
  valence states:
                energy  radius
    2s(2.00)   -13.751   0.635
    2p(2.00)    -5.285   0.635
    *s          13.461   0.635
    *p          21.927   0.635
    *d           0.000   0.635

  LCAO basis set for C:
    Name: dzp
    File: /app/gpaw/datasets/C.dzp.basis
    Number of radial functions: 5
    Number of spherical harmonics: 13
      l=0, rc=5.5938 Bohr: 2s-sz confined orbital
      l=1, rc=6.8750 Bohr: 2p-sz confined orbital
      l=0, rc=3.0938 Bohr: 2s-dz split-valence wave
      l=1, rc=3.8125 Bohr: 2p-dz split-valence wave
      l=2, rc=6.8750 Bohr: d-type Gaussian polarization

Reference energy: -412395.464894

Spin-paired calculation

Occupation numbers:
  Fermi-Dirac: width=0.0000 eV

Convergence criteria:
  Maximum total energy change: 0.0005 eV / electron
  Maximum integral of absolute density change: 0.0001 electrons
  Maximum integral of absolute eigenstate change: 4e-08 eV^2
  Maximum number of iterations: 150

Symmetries present (total): 1

  ( 1  0  0)
  ( 0  1  0)
  ( 0  0  1)

1 k-point (Gamma)
1 k-point in the irreducible part of the Brillouin zone
       k-points in crystal coordinates                weights
   0:     0.00000000    0.00000000    0.00000000          1/1

Wave functions: Uniform real-space grid
  Kinetic energy operator: 6*3+1=19 point O(h^6) finite-difference Laplacian
  ScaLapack parameters: grid=1x1, blocksize=None 

Eigensolver
   CG(niter=4, rtol=3.0e-01) 

Densities:
  Coarse grid: 56*56*56 grid
  Fine grid: 112*112*112 grid
  Total Charge: 0.000000 

Density mixing:
  Method: separate
  Backend: pulay
  Linear mixing parameter: 0.25
  Mixing with 3 old densities
  No damping of long wave oscillations 

Hamiltonian:
  XC and Coulomb potentials evaluated on a 112*112*112 grid
  Using the M06-L Exchange-Correlation functional
  Interpolation: tri-quintic (5. degree polynomial)
  Poisson solver: Jacobi solver with 5 multi-grid levels
    Coarsest grid: 7 x 7 x 7 points
    Stencil: 6*3+1=19 point O(h^6) finite-difference Laplacian
    Max iterations: 1000
    Tolerance: 2.000000e-10 

Memory estimate:
  Process memory now: 41.60 MiB
  Calculator: 198.44 MiB
    Density: 80.53 MiB
      Arrays: 33.84 MiB
      Localized functions: 39.07 MiB
      Mixer: 7.62 MiB
    Hamiltonian: 52.63 MiB
      Arrays: 22.14 MiB
      XC: 2.54 MiB
      Poisson: 25.33 MiB
      vbar: 2.62 MiB
    Wavefunctions: 65.28 MiB
      Arrays psit_nG: 26.66 MiB
      Eigensolver: 33.00 MiB
      Projections: 0.01 MiB
      Projectors: 5.61 MiB

Total number of cores used: 1

Number of atoms: 3
Number of atomic orbitals: 53
Number of bands in calculation: 21
Bands to converge: occupied states only
Number of valence electrons: 21

... initialized

Initializing position-dependent things.

Density initialized from atomic densities
Creating initial wave functions:
  21 bands from LCAO basis set

     .---------------.  
    /|               |  
   / |               |  
  /  |               |  
 *   |               |  
 |   |               |  
 |   |N    Hf  C     |  
 |   |               |  
 |   .---------------.  
 |  /               /   
 | /               /    
 |/               /     
 *---------------*      

Positions:
   0 Hf     3.165000    3.550000    3.250000    ( 0.0000,  0.0000,  0.0000)
   1 N      1.485000    2.950000    3.250000    ( 0.0000,  0.0000,  0.0000)
   2 C      5.015000    2.950000    3.250000    ( 0.0000,  0.0000,  0.0000)

Unit cell:
           periodic     x           y           z      points  spacing
  1. axis:    no     6.500000    0.000000    0.000000    56     0.1161
  2. axis:    no     0.000000    6.500000    0.000000    56     0.1161
  3. axis:    no     0.000000    0.000000    6.500000    56     0.1161

  Lengths:   6.500000   6.500000   6.500000
  Angles:   90.000000  90.000000  90.000000

Effective grid spacing dv^(1/3) = 0.1161

                     log10-error:    total        iterations:
           time      wfs    density  energy       fermi  poisson
iter:   1  16:42:22  +3.42   +inf  -456.174556    0      13     
iter:   2  16:42:25  +3.37   +inf  -716.355615    0             
iter:   3  16:42:29  +2.50   +inf  -841.391674    0             
iter:   4  16:42:51  +3.16  -0.22  -101.769049    0      12     
iter:   5  16:43:14  +2.66  -0.30   -21.955447    0      11     
iter:   6  16:43:37  +2.92  -0.48    -3.364333    0      11     
iter:   7  16:44:00  +2.68  -0.50   -72.268569    0      11     
iter:   8  16:44:22  +2.16  -0.34   -22.821340    0      11     
iter:   9  16:44:44  +1.55  -0.50   -39.910336    0      11     
iter:  10  16:45:07  +1.68  -0.50   -44.596215    0      11     
iter:  11  16:45:29  +1.66  -0.61   -16.975746    0      10     
iter:  12  16:45:50  +0.87  -0.81   -19.094700    0      8      
iter:  13  16:46:12  +0.50  -0.87   -19.203406    0      7      
iter:  14  16:46:34  +0.11  -0.84   -18.296279    0      9      
iter:  15  16:46:56  -0.25  -0.99   -17.962352    0      9      
iter:  16  16:47:17  -0.13  -1.34   -18.276281    0      6      
iter:  17  16:47:39  -0.54  -1.39   -18.464863    0      8      
iter:  18  16:48:00  -0.64  -1.59   -18.649892    0      8      
iter:  19  16:48:21  -1.03  -1.97   -18.681327    0      6      
iter:  20  16:48:46  -1.41  -2.10   -18.697329    0      6      
iter:  21  16:49:14  -2.00  -2.43   -18.701933    0      5      
iter:  22  16:49:41  -2.36  -2.48   -18.704296    0      5      
iter:  23  16:50:09  -2.24  -2.67   -18.706085    0      4      
iter:  24  16:50:33  -2.55  -2.87   -18.706703    0      4      
iter:  25  16:50:54  -3.08  -3.01   -18.707272    0      4      
iter:  26  16:51:15  -3.46  -3.23   -18.707434    0      3      
iter:  27  16:51:35  -3.47  -3.32   -18.707584    0      3      
iter:  28  16:51:55  -3.37  -3.58   -18.707702    0      3      
iter:  29  16:52:16  -3.70  -3.84   -18.707697    0      3      
iter:  30  16:52:36  -4.03  -3.94   -18.707752    0      2      
iter:  31  16:52:58  -4.24  -3.98   -18.707774    0      2      
iter:  32  16:53:21  -4.88  -4.16   -18.707784    0      2      
iter:  33  16:53:40  -5.23  -4.33   -18.707759    0      2      
iter:  34  16:54:00  -5.58  -4.50   -18.707851    0      1      
iter:  35  16:54:20  -5.88  -4.65   -18.707789    0      1      
iter:  36  16:54:39  -6.15  -4.82   -18.707707    0      1      
iter:  37  16:54:59  -6.15  -4.95   -18.707637    0      1      
iter:  38  16:55:18  -6.36  -5.29   -18.707669    0      1      
iter:  39  16:55:38  -6.91  -5.33   -18.707704    0      1      
iter:  40  16:55:57  -7.62  -5.34   -18.707714    0      1      

Converged after 40 iterations.

Dipole moment: (0.269296, 1.069447, -0.000000) |e|*Ang

Energy contributions relative to reference atoms: (reference = -412395.464894)

Kinetic:        +17.083909
Potential:       -9.160316
External:        +0.000000
XC:             -26.620871
Entropy (-ST):   +0.000000
Local:           -0.010436
--------------------------
Free energy:    -18.707714
Extrapolated:   -18.707714

Fermi level: -3.66423

 Band  Eigenvalues  Occupancy
    0    -66.54217    2.00000
    1    -35.21504    2.00000
    2    -35.21116    2.00000
    3    -35.08219    2.00000
    4    -16.56598    2.00000
    5    -12.35045    2.00000
    6     -5.62251    2.00000
    7     -5.47687    2.00000
    8     -5.25539    2.00000
    9     -4.02168    2.00000
   10     -3.66423    1.00000
   11     -2.35323    0.00000
   12     -1.90945    0.00000
   13     -1.04643    0.00000
   14     -0.65693    0.00000
   15      2.20516    0.00000
   16      2.38316    0.00000
   17      3.04688    0.00000
   18      3.32477    0.00000
   19      6.48766    0.00000
   20      6.71494    0.00000

Writing to 3_27462_Pm_M06-L_R38_1536943312.gpw (mode='all')

Timing:                              incl.     excl.
-----------------------------------------------------------
Hamiltonian:                        21.179     0.000   0.0% |
 Atomic:                             2.841     0.001   0.0% |
  XC Correction:                     2.840     2.840   0.3% |
 Calculate atomic Hamiltonians:      0.010     0.010   0.0% |
 Communicate:                        0.000     0.000   0.0% |
 Hartree integrate/restrict:         0.021     0.021   0.0% |
 Initialize Hamiltonian:             0.000     0.000   0.0% |
 Poisson:                            3.128     3.128   0.4% |
 XC 3D grid:                        15.173    15.173   1.8% ||
 vbar:                               0.007     0.007   0.0% |
LCAO initialization:                 3.786     2.520   0.3% |
 LCAO eigensolver:                   0.144     0.000   0.0% |
  Calculate projections:             0.000     0.000   0.0% |
  DenseAtomicCorrection:             0.000     0.000   0.0% |
  Distribute overlap matrix:         0.000     0.000   0.0% |
  Orbital Layouts:                   0.001     0.001   0.0% |
  Potential matrix:                  0.142     0.142   0.0% |
 LCAO to grid:                       0.254     0.254   0.0% |
 Set positions (LCAO WFS):           0.868     0.000   0.0% |
  Basic WFS set positions:           0.000     0.000   0.0% |
  Basis functions set positions:     0.000     0.000   0.0% |
  TCI: Calculate S, T, P:            0.867     0.867   0.1% |
SCF-cycle:                         818.777     0.030   0.0% |
 CG:                               107.654    28.808   3.4% ||
  Apply hamiltonian:                32.006    32.006   3.8% |-|
  CG: orthonormalize:               15.973     8.377   1.0% |
   CG: overlap:                      7.441     7.441   0.9% |
   CG: overlap2:                     0.154     0.154   0.0% |
  Subspace diag:                    30.867     0.003   0.0% |
   calc_h_matrix:                   21.955     4.380   0.5% |
    Apply hamiltonian:              17.575    17.575   2.1% ||
   diagonalize:                      0.010     0.010   0.0% |
   rotate_psi:                       8.898     8.898   1.1% |
 Density:                            2.072     0.001   0.0% |
  Atomic density matrices:           0.028     0.028   0.0% |
  Mix:                               1.499     1.499   0.2% |
  Multipole moments:                 0.007     0.007   0.0% |
  Pseudo density:                    0.537     0.536   0.1% |
   Symmetrize density:               0.001     0.001   0.0% |
 Hamiltonian:                      708.874     0.005   0.0% |
  Atomic:                           66.961     0.039   0.0% |
   XC Correction:                   66.922    66.922   7.9% |--|
  Calculate atomic Hamiltonians:     0.417     0.417   0.0% |
  Communicate:                       0.000     0.000   0.0% |
  Hartree integrate/restrict:        0.980     0.980   0.1% |
  Poisson:                          54.772    54.772   6.5% |--|
  XC 3D grid:                      585.563   585.563  69.3% |---------------------------|
  vbar:                              0.177     0.177   0.0% |
 Orthonormalize:                     0.147     0.000   0.0% |
  calc_s_matrix:                     0.047     0.047   0.0% |
  inverse-cholesky:                  0.000     0.000   0.0% |
  projections:                       0.033     0.033   0.0% |
  rotate_psi_s:                      0.066     0.066   0.0% |
Set symmetry:                        0.001     0.001   0.0% |
Other:                               1.296     1.296   0.2% |
-----------------------------------------------------------
Total:                                       845.039 100.0%

Memory usage: 541.09 MiB
Date: Fri Sep 14 16:55:57 2018
