
  ___ ___ ___ _ _ _  
 |   |   |_  | | | | 
 | | | | | . | | | | 
 |__ |  _|___|_____|  1.4.0
 |___|_|             

User:   ???@93e7e28806d8
Date:   Fri Sep 14 17:01:03 2018
Arch:   x86_64
Pid:    1632
Python: 3.7.0
gpaw:   /app/gpaw/software/venv/lib/python3.7/site-packages/gpaw
_gpaw:  /app/gpaw/software/venv/lib/python3.7/site-packages/
        _gpaw.cpython-37m-x86_64-linux-gnu.so
ase:    /app/gpaw/software/venv/lib/python3.7/site-packages/ase (version 3.16.2)
numpy:  /app/gpaw/software/venv/lib/python3.7/site-packages/numpy (version 1.15.0)
scipy:  /app/gpaw/software/venv/lib/python3.7/site-packages/scipy (version 1.1.0)
units:  Angstrom and eV
cores:  1

Input parameters:
  basis: dzp
  eigensolver: cg
  gpts: [56 56 56]
  maxiter: 150
  mixer: {backend: pulay,
          beta: None,
          method: separate,
          nmaxold: None,
          weight: None}
  xc: M06-L

System changes: positions, numbers, cell, pbc, initial_charges, initial_magmoms 

Initialize ...

Hf-setup:
  name: Hafnium
  id: d03a45b6fa1dd7f07e443d1513edf499
  Z: 72
  valence: 12
  core: 60
  charge: 0.0
  file: /app/gpaw/datasets/Hf.PBE
  cutoffs: 1.30(comp), 2.36(filt), 4.02(core), lmax=2
  valence states:
                energy  radius
    5s(2.00)   -66.831   1.397
    6s(2.00)    -5.097   1.397
    5p(6.00)   -35.599   1.307
    6p(0.00)    -1.401   1.307
    5d(2.00)    -2.699   1.334
    *d          24.513   1.334

  LCAO basis set for Hf:
    Name: dzp
    File: /app/gpaw/datasets/Hf.dzp.basis
    Number of radial functions: 9
    Number of spherical harmonics: 27
      l=0, rc=3.5625 Bohr: 5s-sz confined orbital
      l=0, rc=9.5469 Bohr: 6s-sz confined orbital
      l=1, rc=4.3125 Bohr: 5p-sz confined orbital
      l=2, rc=8.5000 Bohr: 5d-sz confined orbital
      l=0, rc=2.2656 Bohr: 5s-dz split-valence wave
      l=0, rc=5.7812 Bohr: 6s-dz split-valence wave
      l=1, rc=2.6406 Bohr: 5p-dz split-valence wave
      l=2, rc=4.9844 Bohr: 5d-dz split-valence wave
      l=3, rc=8.5000 Bohr: f-type Gaussian polarization

N-setup:
  name: Nitrogen
  id: 45c8c9c739e7b131496b9fd2deb94bff
  Z: 7
  valence: 5
  core: 2
  charge: 0.0
  file: /app/gpaw/datasets/N.PBE
  cutoffs: 0.58(comp), 1.11(filt), 0.96(core), lmax=2
  valence states:
                energy  radius
    2s(2.00)   -18.583   0.603
    2p(3.00)    -7.089   0.529
    *s           8.629   0.603
    *p          20.123   0.529
    *d           0.000   0.577

  LCAO basis set for N:
    Name: dzp
    File: /app/gpaw/datasets/N.dzp.basis
    Number of radial functions: 5
    Number of spherical harmonics: 13
      l=0, rc=4.8594 Bohr: 2s-sz confined orbital
      l=1, rc=6.0625 Bohr: 2p-sz confined orbital
      l=0, rc=2.6094 Bohr: 2s-dz split-valence wave
      l=1, rc=3.2656 Bohr: 2p-dz split-valence wave
      l=2, rc=6.0625 Bohr: d-type Gaussian polarization

C-setup:
  name: Carbon
  id: 2f012631b351e3618121587a96c50fca
  Z: 6
  valence: 4
  core: 2
  charge: 0.0
  file: /app/gpaw/datasets/C.PBE
  cutoffs: 0.64(comp), 1.14(filt), 1.14(core), lmax=2
  valence states:
                energy  radius
    2s(2.00)   -13.751   0.635
    2p(2.00)    -5.285   0.635
    *s          13.461   0.635
    *p          21.927   0.635
    *d           0.000   0.635

  LCAO basis set for C:
    Name: dzp
    File: /app/gpaw/datasets/C.dzp.basis
    Number of radial functions: 5
    Number of spherical harmonics: 13
      l=0, rc=5.5938 Bohr: 2s-sz confined orbital
      l=1, rc=6.8750 Bohr: 2p-sz confined orbital
      l=0, rc=3.0938 Bohr: 2s-dz split-valence wave
      l=1, rc=3.8125 Bohr: 2p-dz split-valence wave
      l=2, rc=6.8750 Bohr: d-type Gaussian polarization

Reference energy: -412395.464894

Spin-paired calculation

Occupation numbers:
  Fermi-Dirac: width=0.0000 eV

Convergence criteria:
  Maximum total energy change: 0.0005 eV / electron
  Maximum integral of absolute density change: 0.0001 electrons
  Maximum integral of absolute eigenstate change: 4e-08 eV^2
  Maximum number of iterations: 150

Symmetries present (total): 1

  ( 1  0  0)
  ( 0  1  0)
  ( 0  0  1)

1 k-point (Gamma)
1 k-point in the irreducible part of the Brillouin zone
       k-points in crystal coordinates                weights
   0:     0.00000000    0.00000000    0.00000000          1/1

Wave functions: Uniform real-space grid
  Kinetic energy operator: 6*3+1=19 point O(h^6) finite-difference Laplacian
  ScaLapack parameters: grid=1x1, blocksize=None 

Eigensolver
   CG(niter=4, rtol=3.0e-01) 

Densities:
  Coarse grid: 56*56*56 grid
  Fine grid: 112*112*112 grid
  Total Charge: 0.000000 

Density mixing:
  Method: separate
  Backend: pulay
  Linear mixing parameter: 0.25
  Mixing with 3 old densities
  No damping of long wave oscillations 

Hamiltonian:
  XC and Coulomb potentials evaluated on a 112*112*112 grid
  Using the M06-L Exchange-Correlation functional
  Interpolation: tri-quintic (5. degree polynomial)
  Poisson solver: Jacobi solver with 5 multi-grid levels
    Coarsest grid: 7 x 7 x 7 points
    Stencil: 6*3+1=19 point O(h^6) finite-difference Laplacian
    Max iterations: 1000
    Tolerance: 2.000000e-10 

Memory estimate:
  Process memory now: 41.60 MiB
  Calculator: 198.44 MiB
    Density: 80.53 MiB
      Arrays: 33.84 MiB
      Localized functions: 39.07 MiB
      Mixer: 7.62 MiB
    Hamiltonian: 52.63 MiB
      Arrays: 22.14 MiB
      XC: 2.54 MiB
      Poisson: 25.33 MiB
      vbar: 2.62 MiB
    Wavefunctions: 65.28 MiB
      Arrays psit_nG: 26.66 MiB
      Eigensolver: 33.00 MiB
      Projections: 0.01 MiB
      Projectors: 5.61 MiB

Total number of cores used: 1

Number of atoms: 3
Number of atomic orbitals: 53
Number of bands in calculation: 21
Bands to converge: occupied states only
Number of valence electrons: 21

... initialized

Initializing position-dependent things.

Density initialized from atomic densities
Creating initial wave functions:
  21 bands from LCAO basis set

     .---------------.  
    /|               |  
   / |               |  
  /  |               |  
 *   |               |  
 |   |               |  
 |   |N    Hf  C     |  
 |   |               |  
 |   .---------------.  
 |  /               /   
 | /               /    
 |/               /     
 *---------------*      

Positions:
   0 Hf     3.165000    3.650000    3.250000    ( 0.0000,  0.0000,  0.0000)
   1 N      1.485000    2.850000    3.250000    ( 0.0000,  0.0000,  0.0000)
   2 C      5.015000    2.850000    3.250000    ( 0.0000,  0.0000,  0.0000)

Unit cell:
           periodic     x           y           z      points  spacing
  1. axis:    no     6.500000    0.000000    0.000000    56     0.1161
  2. axis:    no     0.000000    6.500000    0.000000    56     0.1161
  3. axis:    no     0.000000    0.000000    6.500000    56     0.1161

  Lengths:   6.500000   6.500000   6.500000
  Angles:   90.000000  90.000000  90.000000

Effective grid spacing dv^(1/3) = 0.1161

                     log10-error:    total        iterations:
           time      wfs    density  energy       fermi  poisson
iter:   1  17:01:32  +3.45   +inf  -460.457786    0      13     
iter:   2  17:01:34  +3.34   +inf  -723.155802    0             
iter:   3  17:01:37  +2.42   +inf  -825.444655    0             
iter:   4  17:01:59  +2.58  -0.16  -140.211091    0      12     
iter:   5  17:02:21  +2.38  -0.27   -13.686646    0      11     
iter:   6  17:02:43  +2.72  -0.48     6.262558    0      11     
iter:   7  17:03:05  +2.71  -0.65   -79.767966    0      11     
iter:   8  17:03:27  +2.21  -0.40   -12.121927    0      12     
iter:   9  17:03:49  +1.44  -0.53   -22.933623    0      11     
iter:  10  17:04:11  +1.86  -0.65   -22.062594    0      11     
iter:  11  17:04:32  +1.24  -0.56   -20.098933    0      10     
iter:  12  17:04:55  +1.19  -0.73   -15.644916    0      10     
iter:  13  17:05:16  +0.62  -1.02   -16.952870    0      8      
iter:  14  17:05:37  +0.61  -1.06   -16.462132    0      7      
iter:  15  17:05:59  +0.15  -1.14   -16.464009    0      8      
iter:  16  17:06:20  +0.26  -1.33   -16.626882    0      7      
iter:  17  17:06:41  -0.48  -1.27   -16.577567    0      7      
iter:  18  17:07:02  +0.93  -1.42   -17.713286    0      7      
iter:  19  17:07:23  -0.15  -1.20   -18.007105    0      6      
iter:  20  17:07:44  -0.77  -0.98   -17.837593    0      5      
iter:  21  17:08:06  +0.00  -0.98   -18.163614    0      8      
iter:  22  17:08:27  +0.13  -0.93   -18.339446    0      8      
iter:  23  17:08:49  -0.15  -1.02   -18.309653    0      8      
iter:  24  17:09:11  -0.32  -1.24   -18.411286    0      8      
iter:  25  17:09:34  -0.83  -1.49   -18.451412    0      7      
iter:  26  17:09:56  -0.87  -1.56   -18.480420    0      6      
iter:  27  17:10:18  -0.85  -1.72   -18.521039    0      7      
iter:  28  17:10:39  -1.44  -2.02   -18.537058    0      6      
iter:  29  17:11:00  -1.77  -2.24   -18.545685    0      5      
iter:  30  17:11:22  -2.23  -2.44   -18.549424    0      5      
iter:  31  17:11:43  -1.93  -2.36   -18.551456    0      5      
iter:  32  17:12:05  -2.71  -2.84   -18.552171    0      4      
iter:  33  17:12:26  -3.48  -3.00   -18.552348    0      4      
iter:  34  17:12:48  -3.22  -3.09   -18.552571    0      4      
iter:  35  17:13:09  -3.70  -3.27   -18.552606    0      3      
iter:  36  17:13:30  -3.14  -3.16   -18.552801    0      4      
iter:  37  17:13:51  -3.91  -3.65   -18.552761    0      3      
iter:  38  17:14:12  -4.49  -3.67   -18.552843    0      2      
iter:  39  17:14:33  -4.67  -3.72   -18.552854    0      3      
iter:  40  17:14:53  -4.10  -3.80   -18.552891    0      3      
iter:  41  17:15:14  -4.45  -4.12   -18.552899    0      2      
iter:  42  17:15:34  -4.45  -4.40   -18.552881    0      2      
iter:  43  17:15:55  -4.61  -4.63   -18.552871    0      2      
iter:  44  17:16:15  -5.19  -4.77   -18.552853    0      1      
iter:  45  17:16:35  -6.16  -4.74   -18.552898    0      1      
iter:  46  17:16:55  -7.39  -4.66   -18.552870    0      1      
iter:  47  17:17:15  -7.11  -4.61   -18.552866    0      1      
iter:  48  17:17:34  -5.94  -4.66   -18.552918    0      1      
iter:  49  17:17:54  -6.21  -4.88   -18.552925    0      1      
iter:  50  17:18:15  -6.46  -4.98   -18.552914    0      1      
iter:  51  17:18:35  -6.75  -5.12   -18.552900    0      1      
iter:  52  17:18:54  -7.32  -5.25   -18.552897    0      1      
iter:  53  17:19:14  -7.33  -5.46   -18.552890    0      1      
iter:  54  17:19:34  -7.73  -5.63   -18.552887    0      1      

Converged after 54 iterations.

Dipole moment: (0.348113, 1.184436, -0.000000) |e|*Ang

Energy contributions relative to reference atoms: (reference = -412395.464894)

Kinetic:         +6.123539
Potential:       -0.104768
External:        +0.000000
XC:             -24.504291
Entropy (-ST):   +0.000000
Local:           -0.067368
--------------------------
Free energy:    -18.552887
Extrapolated:   -18.552887

Fermi level: -3.72987

 Band  Eigenvalues  Occupancy
    0    -66.61231    2.00000
    1    -35.29714    2.00000
    2    -35.17990    2.00000
    3    -34.94830    2.00000
    4    -16.42291    2.00000
    5    -12.54904    2.00000
    6     -5.31036    2.00000
    7     -5.21204    2.00000
    8     -4.86079    2.00000
    9     -4.09003    2.00000
   10     -3.72987    1.00000
   11     -2.92745    0.00000
   12     -1.92803    0.00000
   13     -0.91064    0.00000
   14     -0.43470    0.00000
   15      1.59956    0.00000
   16      1.60532    0.00000
   17      2.91740    0.00000
   18      3.53066    0.00000
   19      5.64796    0.00000
   20      8.22174    0.00000

Writing to 3_27462_Pm_M06-L_R40_1536944463.gpw (mode='all')

Timing:                              incl.     excl.
-----------------------------------------------------------
Hamiltonian:                        20.501     0.000   0.0% |
 Atomic:                             2.813     0.001   0.0% |
  XC Correction:                     2.812     2.812   0.3% |
 Calculate atomic Hamiltonians:      0.010     0.010   0.0% |
 Communicate:                        0.000     0.000   0.0% |
 Hartree integrate/restrict:         0.020     0.020   0.0% |
 Initialize Hamiltonian:             0.000     0.000   0.0% |
 Poisson:                            2.983     2.983   0.3% |
 XC 3D grid:                        14.668    14.668   1.3% ||
 vbar:                               0.007     0.007   0.0% |
LCAO initialization:                 3.643     2.437   0.2% |
 LCAO eigensolver:                   0.138     0.000   0.0% |
  Calculate projections:             0.000     0.000   0.0% |
  DenseAtomicCorrection:             0.000     0.000   0.0% |
  Distribute overlap matrix:         0.000     0.000   0.0% |
  Orbital Layouts:                   0.001     0.001   0.0% |
  Potential matrix:                  0.136     0.136   0.0% |
 LCAO to grid:                       0.247     0.247   0.0% |
 Set positions (LCAO WFS):           0.821     0.000   0.0% |
  Basic WFS set positions:           0.000     0.000   0.0% |
  Basis functions set positions:     0.000     0.000   0.0% |
  TCI: Calculate S, T, P:            0.820     0.820   0.1% |
SCF-cycle:                        1086.010     0.039   0.0% |
 CG:                               141.273    37.960   3.4% ||
  Apply hamiltonian:                41.046    41.046   3.7% ||
  CG: orthonormalize:               22.086    11.636   1.0% |
   CG: overlap:                     10.253    10.253   0.9% |
   CG: overlap2:                     0.197     0.197   0.0% |
  Subspace diag:                    40.181     0.004   0.0% |
   calc_h_matrix:                   28.035     5.812   0.5% |
    Apply hamiltonian:              22.223    22.223   2.0% ||
   diagonalize:                      0.013     0.013   0.0% |
   rotate_psi:                      12.129    12.129   1.1% |
 Density:                            2.853     0.001   0.0% |
  Atomic density matrices:           0.036     0.036   0.0% |
  Mix:                               2.058     2.058   0.2% |
  Multipole moments:                 0.010     0.010   0.0% |
  Pseudo density:                    0.747     0.746   0.1% |
   Symmetrize density:               0.001     0.001   0.0% |
 Hamiltonian:                      941.683     0.006   0.0% |
  Atomic:                           88.276     0.050   0.0% |
   XC Correction:                   88.226    88.226   7.9% |--|
  Calculate atomic Hamiltonians:     0.513     0.513   0.0% |
  Communicate:                       0.000     0.000   0.0% |
  Hartree integrate/restrict:        1.153     1.153   0.1% |
  Poisson:                          67.154    67.154   6.0% |-|
  XC 3D grid:                      784.327   784.327  70.6% |---------------------------|
  vbar:                              0.253     0.253   0.0% |
 Orthonormalize:                     0.162     0.000   0.0% |
  calc_s_matrix:                     0.056     0.056   0.0% |
  inverse-cholesky:                  0.000     0.000   0.0% |
  projections:                       0.035     0.035   0.0% |
  rotate_psi_s:                      0.070     0.070   0.0% |
Set symmetry:                        0.001     0.001   0.0% |
Other:                               1.313     1.313   0.1% |
-----------------------------------------------------------
Total:                                      1111.469 100.0%

Memory usage: 541.00 MiB
Date: Fri Sep 14 17:19:34 2018
