
  ___ ___ ___ _ _ _  
 |   |   |_  | | | | 
 | | | | | . | | | | 
 |__ |  _|___|_____|  1.4.0
 |___|_|             

User:   ???@93e7e28806d8
Date:   Fri Sep 14 14:29:27 2018
Arch:   x86_64
Pid:    658
Python: 3.7.0
gpaw:   /app/gpaw/software/venv/lib/python3.7/site-packages/gpaw
_gpaw:  /app/gpaw/software/venv/lib/python3.7/site-packages/
        _gpaw.cpython-37m-x86_64-linux-gnu.so
ase:    /app/gpaw/software/venv/lib/python3.7/site-packages/ase (version 3.16.2)
numpy:  /app/gpaw/software/venv/lib/python3.7/site-packages/numpy (version 1.15.0)
scipy:  /app/gpaw/software/venv/lib/python3.7/site-packages/scipy (version 1.1.0)
units:  Angstrom and eV
cores:  1

Input parameters:
  basis: dzp
  eigensolver: cg
  gpts: [56 56 56]
  maxiter: 150
  mixer: {backend: pulay,
          beta: None,
          method: separate,
          nmaxold: None,
          weight: None}
  xc: M06-L

System changes: positions, numbers, cell, pbc, initial_charges, initial_magmoms 

Initialize ...

Hf-setup:
  name: Hafnium
  id: d03a45b6fa1dd7f07e443d1513edf499
  Z: 72
  valence: 12
  core: 60
  charge: 0.0
  file: /app/gpaw/datasets/Hf.PBE
  cutoffs: 1.30(comp), 2.36(filt), 4.02(core), lmax=2
  valence states:
                energy  radius
    5s(2.00)   -66.831   1.397
    6s(2.00)    -5.097   1.397
    5p(6.00)   -35.599   1.307
    6p(0.00)    -1.401   1.307
    5d(2.00)    -2.699   1.334
    *d          24.513   1.334

  LCAO basis set for Hf:
    Name: dzp
    File: /app/gpaw/datasets/Hf.dzp.basis
    Number of radial functions: 9
    Number of spherical harmonics: 27
      l=0, rc=3.5625 Bohr: 5s-sz confined orbital
      l=0, rc=9.5469 Bohr: 6s-sz confined orbital
      l=1, rc=4.3125 Bohr: 5p-sz confined orbital
      l=2, rc=8.5000 Bohr: 5d-sz confined orbital
      l=0, rc=2.2656 Bohr: 5s-dz split-valence wave
      l=0, rc=5.7812 Bohr: 6s-dz split-valence wave
      l=1, rc=2.6406 Bohr: 5p-dz split-valence wave
      l=2, rc=4.9844 Bohr: 5d-dz split-valence wave
      l=3, rc=8.5000 Bohr: f-type Gaussian polarization

N-setup:
  name: Nitrogen
  id: 45c8c9c739e7b131496b9fd2deb94bff
  Z: 7
  valence: 5
  core: 2
  charge: 0.0
  file: /app/gpaw/datasets/N.PBE
  cutoffs: 0.58(comp), 1.11(filt), 0.96(core), lmax=2
  valence states:
                energy  radius
    2s(2.00)   -18.583   0.603
    2p(3.00)    -7.089   0.529
    *s           8.629   0.603
    *p          20.123   0.529
    *d           0.000   0.577

  LCAO basis set for N:
    Name: dzp
    File: /app/gpaw/datasets/N.dzp.basis
    Number of radial functions: 5
    Number of spherical harmonics: 13
      l=0, rc=4.8594 Bohr: 2s-sz confined orbital
      l=1, rc=6.0625 Bohr: 2p-sz confined orbital
      l=0, rc=2.6094 Bohr: 2s-dz split-valence wave
      l=1, rc=3.2656 Bohr: 2p-dz split-valence wave
      l=2, rc=6.0625 Bohr: d-type Gaussian polarization

C-setup:
  name: Carbon
  id: 2f012631b351e3618121587a96c50fca
  Z: 6
  valence: 4
  core: 2
  charge: 0.0
  file: /app/gpaw/datasets/C.PBE
  cutoffs: 0.64(comp), 1.14(filt), 1.14(core), lmax=2
  valence states:
                energy  radius
    2s(2.00)   -13.751   0.635
    2p(2.00)    -5.285   0.635
    *s          13.461   0.635
    *p          21.927   0.635
    *d           0.000   0.635

  LCAO basis set for C:
    Name: dzp
    File: /app/gpaw/datasets/C.dzp.basis
    Number of radial functions: 5
    Number of spherical harmonics: 13
      l=0, rc=5.5938 Bohr: 2s-sz confined orbital
      l=1, rc=6.8750 Bohr: 2p-sz confined orbital
      l=0, rc=3.0938 Bohr: 2s-dz split-valence wave
      l=1, rc=3.8125 Bohr: 2p-dz split-valence wave
      l=2, rc=6.8750 Bohr: d-type Gaussian polarization

Reference energy: -412395.464894

Spin-paired calculation

Occupation numbers:
  Fermi-Dirac: width=0.0000 eV

Convergence criteria:
  Maximum total energy change: 0.0005 eV / electron
  Maximum integral of absolute density change: 0.0001 electrons
  Maximum integral of absolute eigenstate change: 4e-08 eV^2
  Maximum number of iterations: 150

Symmetries present (total): 1

  ( 1  0  0)
  ( 0  1  0)
  ( 0  0  1)

1 k-point (Gamma)
1 k-point in the irreducible part of the Brillouin zone
       k-points in crystal coordinates                weights
   0:     0.00000000    0.00000000    0.00000000          1/1

Wave functions: Uniform real-space grid
  Kinetic energy operator: 6*3+1=19 point O(h^6) finite-difference Laplacian
  ScaLapack parameters: grid=1x1, blocksize=None 

Eigensolver
   CG(niter=4, rtol=3.0e-01) 

Densities:
  Coarse grid: 56*56*56 grid
  Fine grid: 112*112*112 grid
  Total Charge: 0.000000 

Density mixing:
  Method: separate
  Backend: pulay
  Linear mixing parameter: 0.25
  Mixing with 3 old densities
  No damping of long wave oscillations 

Hamiltonian:
  XC and Coulomb potentials evaluated on a 112*112*112 grid
  Using the M06-L Exchange-Correlation functional
  Interpolation: tri-quintic (5. degree polynomial)
  Poisson solver: Jacobi solver with 5 multi-grid levels
    Coarsest grid: 7 x 7 x 7 points
    Stencil: 6*3+1=19 point O(h^6) finite-difference Laplacian
    Max iterations: 1000
    Tolerance: 2.000000e-10 

Memory estimate:
  Process memory now: 41.61 MiB
  Calculator: 198.44 MiB
    Density: 80.53 MiB
      Arrays: 33.84 MiB
      Localized functions: 39.07 MiB
      Mixer: 7.62 MiB
    Hamiltonian: 52.63 MiB
      Arrays: 22.14 MiB
      XC: 2.54 MiB
      Poisson: 25.33 MiB
      vbar: 2.62 MiB
    Wavefunctions: 65.28 MiB
      Arrays psit_nG: 26.66 MiB
      Eigensolver: 33.00 MiB
      Projections: 0.01 MiB
      Projectors: 5.61 MiB

Total number of cores used: 1

Number of atoms: 3
Number of atomic orbitals: 53
Number of bands in calculation: 21
Bands to converge: occupied states only
Number of valence electrons: 21

... initialized

Initializing position-dependent things.

Density initialized from atomic densities
Creating initial wave functions:
  21 bands from LCAO basis set

     .---------------.  
    /|               |  
   / |               |  
  /  |               |  
 *   |               |  
 |   |               |  
 |   |N    Hf  C     |  
 |   |               |  
 |   .---------------.  
 |  /               /   
 | /               /    
 |/               /     
 *---------------*      

Positions:
   0 Hf     3.190000    3.425000    3.250000    ( 0.0000,  0.0000,  0.0000)
   1 N      1.460000    3.075000    3.250000    ( 0.0000,  0.0000,  0.0000)
   2 C      5.040000    3.075000    3.250000    ( 0.0000,  0.0000,  0.0000)

Unit cell:
           periodic     x           y           z      points  spacing
  1. axis:    no     6.500000    0.000000    0.000000    56     0.1161
  2. axis:    no     0.000000    6.500000    0.000000    56     0.1161
  3. axis:    no     0.000000    0.000000    6.500000    56     0.1161

  Lengths:   6.500000   6.500000   6.500000
  Angles:   90.000000  90.000000  90.000000

Effective grid spacing dv^(1/3) = 0.1161

                     log10-error:    total        iterations:
           time      wfs    density  energy       fermi  poisson
iter:   1  14:29:57  +3.51   +inf  -505.635732    0      13     
iter:   2  14:30:00  +3.99   +inf  -990.256883    0             
iter:   3  14:30:03  +4.08   +inf  -1509.994769    0             
iter:   4  14:30:26  +3.43  -0.00   -13.312902    0      14     
iter:   5  14:30:48  +2.98  -0.17    18.163572    0      12     
iter:   6  14:31:10  +3.09  -0.42   -25.583696    0      12     
iter:   7  14:31:33  +2.47  -0.50   -27.539961    0      13     
iter:   8  14:31:55  +1.73  -0.45   -25.076268    0      12     
iter:   9  14:32:17  +1.80  -0.52   -14.581703    0      11     
iter:  10  14:32:38  +1.10  -0.86   -17.057994    0      9      
iter:  11  14:32:59  +0.92  -0.98   -17.685590    0      8      
iter:  12  14:33:20  +0.31  -0.97   -17.701085    0      7      
iter:  13  14:33:41  +0.08  -0.99   -17.826746    0      8      
iter:  14  14:34:02  +0.54  -1.06   -17.757770    0      8      
iter:  15  14:34:23  -0.22  -1.31   -18.002051    0      8      
iter:  16  14:34:45  -0.52  -1.49   -18.134283    0      7      
iter:  17  14:35:06  -0.53  -1.72   -18.181699    0      7      
iter:  18  14:35:27  -1.01  -1.93   -18.196537    0      6      
iter:  19  14:35:48  -1.44  -2.17   -18.204667    0      6      
iter:  20  14:36:09  -1.82  -2.29   -18.209101    0      5      
iter:  21  14:36:29  -2.01  -2.52   -18.211682    0      5      
iter:  22  14:36:50  -2.36  -2.94   -18.212654    0      4      
iter:  23  14:37:10  -3.02  -3.02   -18.213109    0      4      
iter:  24  14:37:31  -3.11  -3.09   -18.213491    0      4      
iter:  25  14:37:51  -3.17  -3.37   -18.213688    0      4      
iter:  26  14:38:11  -3.38  -3.58   -18.213769    0      3      
iter:  27  14:38:31  -3.92  -3.65   -18.213835    0      3      
iter:  28  14:38:51  -4.13  -3.82   -18.213860    0      3      
iter:  29  14:39:11  -4.42  -4.01   -18.213899    0      2      
iter:  30  14:39:30  -4.58  -4.14   -18.213922    0      2      
iter:  31  14:39:50  -4.80  -4.39   -18.213895    0      2      
iter:  32  14:40:10  -5.16  -4.48   -18.213909    0      2      
iter:  33  14:40:30  -5.32  -4.66   -18.213897    0      1      
iter:  34  14:40:49  -5.83  -4.76   -18.213896    0      1      
iter:  35  14:41:09  -6.15  -4.91   -18.213878    0      1      
iter:  36  14:41:29  -6.51  -5.09   -18.213866    0      1      
iter:  37  14:41:49  -7.23  -5.19   -18.213863    0      1      
iter:  38  14:42:09  -7.29  -5.36   -18.213864    0      1      
iter:  39  14:42:29  -7.44  -5.57   -18.213867    0      1      

Converged after 39 iterations.

Dipole moment: (0.224875, 0.845083, 0.000000) |e|*Ang

Energy contributions relative to reference atoms: (reference = -412395.464894)

Kinetic:        +24.934074
Potential:      -15.287099
External:        +0.000000
XC:             -27.869834
Entropy (-ST):   +0.000000
Local:           +0.008991
--------------------------
Free energy:    -18.213867
Extrapolated:   -18.213867

Fermi level: -3.75545

 Band  Eigenvalues  Occupancy
    0    -66.72204    2.00000
    1    -35.43524    2.00000
    2    -35.38242    2.00000
    3    -35.33916    2.00000
    4    -16.73620    2.00000
    5    -12.11242    2.00000
    6     -5.88714    2.00000
    7     -5.85731    2.00000
    8     -5.13990    2.00000
    9     -3.91044    2.00000
   10     -3.75545    1.00000
   11     -2.39701    0.00000
   12     -1.25056    0.00000
   13     -1.18771    0.00000
   14     -1.22505    0.00000
   15      2.63479    0.00000
   16      2.76245    0.00000
   17      2.77951    0.00000
   18      2.98239    0.00000
   19      6.44370    0.00000
   20      7.71062    0.00000

Writing to 3_27462_Pm_M06-L_R26_1536935367.gpw (mode='all')

Timing:                              incl.     excl.
-----------------------------------------------------------
Hamiltonian:                        21.016     0.000   0.0% |
 Atomic:                             2.842     0.001   0.0% |
  XC Correction:                     2.841     2.841   0.4% |
 Calculate atomic Hamiltonians:      0.010     0.010   0.0% |
 Communicate:                        0.000     0.000   0.0% |
 Hartree integrate/restrict:         0.019     0.019   0.0% |
 Initialize Hamiltonian:             0.000     0.000   0.0% |
 Poisson:                            3.051     3.051   0.4% |
 XC 3D grid:                        15.087    15.087   1.9% ||
 vbar:                               0.006     0.006   0.0% |
LCAO initialization:                 3.697     2.450   0.3% |
 LCAO eigensolver:                   0.144     0.000   0.0% |
  Calculate projections:             0.000     0.000   0.0% |
  DenseAtomicCorrection:             0.000     0.000   0.0% |
  Distribute overlap matrix:         0.000     0.000   0.0% |
  Orbital Layouts:                   0.001     0.001   0.0% |
  Potential matrix:                  0.142     0.142   0.0% |
 LCAO to grid:                       0.250     0.250   0.0% |
 Set positions (LCAO WFS):           0.853     0.000   0.0% |
  Basic WFS set positions:           0.000     0.000   0.0% |
  Basis functions set positions:     0.000     0.000   0.0% |
  TCI: Calculate S, T, P:            0.853     0.853   0.1% |
SCF-cycle:                         756.151     0.027   0.0% |
 CG:                                95.520    26.190   3.3% ||
  Apply hamiltonian:                29.053    29.053   3.7% ||
  CG: orthonormalize:               14.725     7.700   1.0% |
   CG: overlap:                      6.878     6.878   0.9% |
   CG: overlap2:                     0.147     0.147   0.0% |
  Subspace diag:                    25.552     0.003   0.0% |
   calc_h_matrix:                   18.370     3.474   0.4% |
    Apply hamiltonian:              14.896    14.896   1.9% ||
   diagonalize:                      0.009     0.009   0.0% |
   rotate_psi:                       7.169     7.169   0.9% |
 Density:                            1.847     0.001   0.0% |
  Atomic density matrices:           0.025     0.025   0.0% |
  Mix:                               1.341     1.341   0.2% |
  Multipole moments:                 0.007     0.007   0.0% |
  Pseudo density:                    0.473     0.473   0.1% |
   Symmetrize density:               0.001     0.001   0.0% |
 Hamiltonian:                      658.626     0.004   0.0% |
  Atomic:                           61.499     0.034   0.0% |
   XC Correction:                   61.464    61.464   7.9% |--|
  Calculate atomic Hamiltonians:     0.363     0.363   0.0% |
  Communicate:                       0.000     0.000   0.0% |
  Hartree integrate/restrict:        0.790     0.790   0.1% |
  Poisson:                          47.686    47.686   6.1% |-|
  XC 3D grid:                      548.130   548.130  70.1% |---------------------------|
  vbar:                              0.153     0.153   0.0% |
 Orthonormalize:                     0.130     0.000   0.0% |
  calc_s_matrix:                     0.042     0.042   0.0% |
  inverse-cholesky:                  0.000     0.000   0.0% |
  projections:                       0.032     0.032   0.0% |
  rotate_psi_s:                      0.056     0.056   0.0% |
Set symmetry:                        0.001     0.001   0.0% |
Other:                               1.298     1.298   0.2% |
-----------------------------------------------------------
Total:                                       782.163 100.0%

Memory usage: 541.07 MiB
Date: Fri Sep 14 14:42:29 2018
