
  ___ ___ ___ _ _ _  
 |   |   |_  | | | | 
 | | | | | . | | | | 
 |__ |  _|___|_____|  1.4.0
 |___|_|             

User:   ???@93e7e28806d8
Date:   Fri Sep 14 11:54:43 2018
Arch:   x86_64
Pid:    230
Python: 3.7.0
gpaw:   /app/gpaw/software/venv/lib/python3.7/site-packages/gpaw
_gpaw:  /app/gpaw/software/venv/lib/python3.7/site-packages/
        _gpaw.cpython-37m-x86_64-linux-gnu.so
ase:    /app/gpaw/software/venv/lib/python3.7/site-packages/ase (version 3.16.2)
numpy:  /app/gpaw/software/venv/lib/python3.7/site-packages/numpy (version 1.15.0)
scipy:  /app/gpaw/software/venv/lib/python3.7/site-packages/scipy (version 1.1.0)
units:  Angstrom and eV
cores:  1

Input parameters:
  eigensolver: cg
  gpts: [40 40 40]
  maxiter: 150
  mixer: {backend: pulay,
          beta: None,
          method: separate,
          nmaxold: None,
          weight: None}
  xc: M06-L

System changes: positions, numbers, cell, pbc, initial_charges, initial_magmoms 

Initialize ...

Hf-setup:
  name: Hafnium
  id: d03a45b6fa1dd7f07e443d1513edf499
  Z: 72
  valence: 12
  core: 60
  charge: 0.0
  file: /app/gpaw/datasets/Hf.PBE
  cutoffs: 1.30(comp), 2.36(filt), 4.02(core), lmax=2
  valence states:
                energy  radius
    5s(2.00)   -66.831   1.397
    6s(2.00)    -5.097   1.397
    5p(6.00)   -35.599   1.307
    6p(0.00)    -1.401   1.307
    5d(2.00)    -2.699   1.334
    *d          24.513   1.334

  Using partial waves for Hf as LCAO basis

N-setup:
  name: Nitrogen
  id: 45c8c9c739e7b131496b9fd2deb94bff
  Z: 7
  valence: 5
  core: 2
  charge: 0.0
  file: /app/gpaw/datasets/N.PBE
  cutoffs: 0.58(comp), 1.11(filt), 0.96(core), lmax=2
  valence states:
                energy  radius
    2s(2.00)   -18.583   0.603
    2p(3.00)    -7.089   0.529
    *s           8.629   0.603
    *p          20.123   0.529
    *d           0.000   0.577

  Using partial waves for N as LCAO basis

C-setup:
  name: Carbon
  id: 2f012631b351e3618121587a96c50fca
  Z: 6
  valence: 4
  core: 2
  charge: 0.0
  file: /app/gpaw/datasets/C.PBE
  cutoffs: 0.64(comp), 1.14(filt), 1.14(core), lmax=2
  valence states:
                energy  radius
    2s(2.00)   -13.751   0.635
    2p(2.00)    -5.285   0.635
    *s          13.461   0.635
    *p          21.927   0.635
    *d           0.000   0.635

  Using partial waves for C as LCAO basis

Reference energy: -412395.464894

Spin-paired calculation

Occupation numbers:
  Fermi-Dirac: width=0.0000 eV

Convergence criteria:
  Maximum total energy change: 0.0005 eV / electron
  Maximum integral of absolute density change: 0.0001 electrons
  Maximum integral of absolute eigenstate change: 4e-08 eV^2
  Maximum number of iterations: 150

Symmetries present (total): 1

  ( 1  0  0)
  ( 0  1  0)
  ( 0  0  1)

1 k-point (Gamma)
1 k-point in the irreducible part of the Brillouin zone
       k-points in crystal coordinates                weights
   0:     0.00000000    0.00000000    0.00000000          1/1

Wave functions: Uniform real-space grid
  Kinetic energy operator: 6*3+1=19 point O(h^6) finite-difference Laplacian
  ScaLapack parameters: grid=1x1, blocksize=None 

Eigensolver
   CG(niter=4, rtol=3.0e-01) 

Densities:
  Coarse grid: 40*40*40 grid
  Fine grid: 80*80*80 grid
  Total Charge: 0.000000 

Density mixing:
  Method: separate
  Backend: pulay
  Linear mixing parameter: 0.25
  Mixing with 3 old densities
  No damping of long wave oscillations 

Hamiltonian:
  XC and Coulomb potentials evaluated on a 80*80*80 grid
  Using the M06-L Exchange-Correlation functional
  Interpolation: tri-quintic (5. degree polynomial)
  Poisson solver: Jacobi solver with 5 multi-grid levels
    Coarsest grid: 5 x 5 x 5 points
    Stencil: 6*3+1=19 point O(h^6) finite-difference Laplacian
    Max iterations: 1000
    Tolerance: 2.000000e-10 

Memory estimate:
  Process memory now: 41.41 MiB
  Calculator: 71.44 MiB
    Density: 29.14 MiB
      Arrays: 12.19 MiB
      Localized functions: 14.24 MiB
      Mixer: 2.72 MiB
    Hamiltonian: 18.97 MiB
      Arrays: 7.98 MiB
      XC: 0.91 MiB
      Poisson: 9.13 MiB
      vbar: 0.96 MiB
    Wavefunctions: 23.32 MiB
      Arrays psit_nG: 9.50 MiB
      Eigensolver: 11.77 MiB
      Projections: 0.01 MiB
      Projectors: 2.04 MiB

Total number of cores used: 1

Number of atoms: 3
Number of atomic orbitals: 21
Number of bands in calculation: 21
Bands to converge: occupied states only
Number of valence electrons: 21

... initialized

Initializing position-dependent things.

Density initialized from atomic densities
Creating initial wave functions:
  21 bands from LCAO basis set

     .---------------.  
    /|               |  
   / |               |  
  /  |               |  
 *   |               |  
 |   |               |  
 |   |N    Hf  C     |  
 |   |               |  
 |   .---------------.  
 |  /               /   
 | /               /    
 |/               /     
 *---------------*      

Positions:
   0 Hf     3.230000    3.300000    3.250000    ( 0.0000,  0.0000,  0.0000)
   1 N      1.420000    3.200000    3.250000    ( 0.0000,  0.0000,  0.0000)
   2 C      5.080000    3.200000    3.250000    ( 0.0000,  0.0000,  0.0000)

Unit cell:
           periodic     x           y           z      points  spacing
  1. axis:    no     6.500000    0.000000    0.000000    40     0.1625
  2. axis:    no     0.000000    6.500000    0.000000    40     0.1625
  3. axis:    no     0.000000    0.000000    6.500000    40     0.1625

  Lengths:   6.500000   6.500000   6.500000
  Angles:   90.000000  90.000000  90.000000

Effective grid spacing dv^(1/3) = 0.1625

                     log10-error:    total        iterations:
           time      wfs    density  energy       fermi  poisson
iter:   1  11:54:56  +3.18   +inf  -385.634343    0      15     
iter:   2  11:54:57  +3.02   +inf  -624.528055    0             
iter:   3  11:54:58  +2.40   +inf  -668.936963    0             
iter:   4  11:55:07  +2.34  -0.12   -25.627351    0      13     
iter:   5  11:55:16  +2.70  -0.22   -15.271475    0      11     
iter:   6  11:55:24  +2.39  -0.47   -13.313183    0      11     
iter:   7  11:55:33  +1.64  -0.59   -14.194198    0      12     
iter:   8  11:55:42  +1.22  -0.79   -17.741908    0      11     
iter:   9  11:55:51  +0.44  -0.85   -17.178083    0      10     
iter:  10  11:56:00  +0.02  -1.05   -17.182644    0      8      
iter:  11  11:56:08  -0.59  -1.10   -17.086789    0      7      
iter:  12  11:56:17  -0.49  -1.24   -17.207780    0      8      
iter:  13  11:56:26  -0.64  -1.28   -17.352465    0      8      
iter:  14  11:56:34  -0.82  -1.50   -17.379769    0      7      
iter:  15  11:56:42  -1.02  -1.39   -17.387678    0      5      
iter:  16  11:56:51  -0.97  -1.54   -17.428304    0      7      
iter:  17  11:57:00  -1.04  -1.41   -17.459165    0      7      
iter:  18  11:57:08  -0.98  -1.61   -17.463594    0      5      
iter:  19  11:57:16  -1.03  -1.44   -17.468223    0      4      
iter:  20  11:57:24  -1.43  -1.62   -17.462486    0      5      
iter:  21  11:57:33  -1.22  -1.45   -17.473006    0      4      
iter:  22  11:57:41  -1.03  -1.63   -17.467581    0      5      
iter:  23  11:57:49  -1.06  -1.45   -17.475277    0      4      
iter:  24  11:57:57  -1.10  -1.63   -17.470525    0      5      
iter:  25  11:58:06  -1.19  -1.46   -17.477204    0      4      
iter:  26  11:58:14  -1.14  -1.64   -17.470920    0      4      
iter:  27  11:58:22  -1.21  -1.46   -17.477560    0      3      
iter:  28  11:58:30  -1.11  -1.64   -17.471607    0      4      
iter:  29  11:58:38  -1.13  -1.46   -17.477988    0      3      
iter:  30  11:58:47  -1.17  -1.64   -17.472813    0      4      
iter:  31  11:58:55  -1.20  -1.46   -17.479042    0      3      
iter:  32  11:59:03  -1.16  -1.64   -17.473293    0      3      
iter:  33  11:59:11  -1.24  -1.46   -17.478989    0      3      
iter:  34  11:59:19  -1.13  -1.64   -17.473475    0      1      
iter:  35  11:59:27  -1.13  -1.46   -17.478944    0      3      
iter:  36  11:59:35  -1.19  -1.64   -17.473772    0      3      
iter:  37  11:59:43  -1.21  -1.46   -17.479332    0      3      
iter:  38  11:59:51  -1.16  -1.64   -17.474274    0      2      
iter:  39  11:59:59  -1.25  -1.46   -17.479206    0      2      
iter:  40  12:00:07  -1.13  -1.64   -17.474198    0      2      
iter:  41  12:00:15  -1.14  -1.46   -17.479092    0      2      
iter:  42  12:00:23  -1.19  -1.64   -17.474246    0      1      
iter:  43  12:00:31  -1.21  -1.46   -17.479327    0      2      
iter:  44  12:00:39  -1.17  -1.64   -17.474390    0      1      
iter:  45  12:00:47  -1.25  -1.46   -17.479216    0      2      
iter:  46  12:00:55  -1.14  -1.64   -17.474513    0      1      
iter:  47  12:01:03  -1.14  -1.46   -17.479105    0      2      
iter:  48  12:01:11  -1.20  -1.64   -17.474319    0      1      
iter:  49  12:01:19  -1.21  -1.46   -17.479325    0      1      
iter:  50  12:01:27  -1.17  -1.64   -17.474432    0      1      
iter:  51  12:01:35  -1.25  -1.46   -17.479259    0      1      
iter:  52  12:01:43  -1.14  -1.64   -17.474559    0      1      
iter:  53  12:01:51  -1.14  -1.46   -17.479206    0      1      
iter:  54  12:01:59  -1.20  -1.64   -17.474400    0      1      
iter:  55  12:02:07  -1.21  -1.46   -17.479336    0      1      
iter:  56  12:02:15  -1.17  -1.64   -17.474455    0      1      
iter:  57  12:02:23  -1.25  -1.46   -17.479253    0      1      
iter:  58  12:02:31  -1.14  -1.64   -17.474581    0      1      
iter:  59  12:02:39  -1.14  -1.46   -17.479194    0      1      
iter:  60  12:02:47  -1.20  -1.64   -17.474434    0      1      
iter:  61  12:02:55  -1.21  -1.46   -17.479330    0      1      
iter:  62  12:03:03  -1.17  -1.64   -17.474478    0      1      
iter:  63  12:03:11  -1.25  -1.46   -17.479242    0      1      
iter:  64  12:03:19  -1.14  -1.64   -17.474597    0      1      
iter:  65  12:03:26  -1.14  -1.46   -17.479187    0      1      
iter:  66  12:03:34  -1.20  -1.64   -17.474456    0      1      
iter:  67  12:03:42  -1.21  -1.46   -17.479324    0      1      
iter:  68  12:03:50  -1.17  -1.64   -17.474495    0      1      
iter:  69  12:03:58  -1.25  -1.46   -17.479232    0      1      
iter:  70  12:04:06  -1.14  -1.64   -17.474609    0      1      
iter:  71  12:04:14  -1.14  -1.46   -17.479182    0      1      
iter:  72  12:04:22  -1.20  -1.64   -17.474469    0      1      
iter:  73  12:04:30  -1.21  -1.46   -17.479316    0      1      
iter:  74  12:04:38  -1.17  -1.64   -17.474509    0      1      
iter:  75  12:04:46  -1.25  -1.46   -17.479225    0      1      
iter:  76  12:04:54  -1.14  -1.64   -17.474617    0      1      
iter:  77  12:05:02  -1.14  -1.46   -17.479178    0      1      
iter:  78  12:05:10  -1.20  -1.64   -17.474479    0      1      
iter:  79  12:05:18  -1.21  -1.46   -17.479311    0      1      
iter:  80  12:05:26  -1.17  -1.64   -17.474518    0      1      
iter:  81  12:05:34  -1.25  -1.46   -17.479218    0      1      
iter:  82  12:05:41  -1.14  -1.64   -17.474623    0      1      
iter:  83  12:05:49  -1.14  -1.46   -17.479174    0      1      
iter:  84  12:05:57  -1.20  -1.64   -17.474484    0      1      
iter:  85  12:06:05  -1.21  -1.46   -17.479305    0      1      
iter:  86  12:06:13  -1.17  -1.64   -17.474526    0      1      
iter:  87  12:06:21  -1.25  -1.46   -17.479214    0      1      
iter:  88  12:06:29  -1.14  -1.64   -17.474628    0      1      
iter:  89  12:06:37  -1.14  -1.46   -17.479172    0      1      
iter:  90  12:06:45  -1.20  -1.64   -17.474489    0      1      
iter:  91  12:06:53  -1.21  -1.46   -17.479301    0      1      
iter:  92  12:07:01  -1.17  -1.64   -17.474531    0      1      
iter:  93  12:07:09  -1.25  -1.46   -17.479209    0      1      
iter:  94  12:07:17  -1.14  -1.64   -17.474630    0      1      
iter:  95  12:07:24  -1.14  -1.46   -17.479170    0      1      
iter:  96  12:07:32  -1.20  -1.64   -17.474491    0      1      
iter:  97  12:07:40  -1.21  -1.46   -17.479297    0      1      
iter:  98  12:07:48  -1.17  -1.64   -17.474535    0      1      
iter:  99  12:07:56  -1.25  -1.46   -17.479207    0      1      
iter: 100  12:08:04  -1.14  -1.64   -17.474633    0      1      
iter: 101  12:08:12  -1.14  -1.46   -17.479168    0      1      
iter: 102  12:08:20  -1.20  -1.64   -17.474494    0      1      
iter: 103  12:08:28  -1.21  -1.46   -17.479295    0      1      
iter: 104  12:08:36  -1.17  -1.64   -17.474538    0      1      
iter: 105  12:08:44  -1.25  -1.46   -17.479204    0      1      
iter: 106  12:08:51  -1.14  -1.64   -17.474634    0      1      
iter: 107  12:08:59  -1.14  -1.46   -17.479167    0      1      
iter: 108  12:09:07  -1.20  -1.64   -17.474494    0      1      
iter: 109  12:09:15  -1.21  -1.46   -17.479292    0      1      
iter: 110  12:09:23  -1.17  -1.64   -17.474540    0      1      
iter: 111  12:09:31  -1.25  -1.46   -17.479203    0      1      
iter: 112  12:09:39  -1.14  -1.64   -17.474635    0      1      
iter: 113  12:09:47  -1.14  -1.46   -17.479166    0      1      
iter: 114  12:09:55  -1.20  -1.64   -17.474496    0      1      
iter: 115  12:10:03  -1.21  -1.46   -17.479291    0      1      
iter: 116  12:10:11  -1.17  -1.64   -17.474541    0      1      
iter: 117  12:10:18  -1.25  -1.46   -17.479201    0      1      
iter: 118  12:10:26  -1.14  -1.64   -17.474636    0      1      
iter: 119  12:10:34  -1.14  -1.46   -17.479164    0      1      
iter: 120  12:10:42  -1.20  -1.64   -17.474495    0      1      
iter: 121  12:10:50  -1.21  -1.46   -17.479289    0      1      
iter: 122  12:10:58  -1.17  -1.64   -17.474543    0      1      
iter: 123  12:11:06  -1.25  -1.46   -17.479201    0      1      
iter: 124  12:11:14  -1.14  -1.64   -17.474636    0      1      
iter: 125  12:11:22  -1.14  -1.46   -17.479163    0      1      
iter: 126  12:11:30  -1.20  -1.64   -17.474496    0      1      
iter: 127  12:11:38  -1.21  -1.46   -17.479288    0      1      
iter: 128  12:11:45  -1.17  -1.64   -17.474543    0      1      
iter: 129  12:11:53  -1.25  -1.46   -17.479199    0      1      
iter: 130  12:12:01  -1.14  -1.64   -17.474636    0      1      
iter: 131  12:12:09  -1.14  -1.46   -17.479163    0      1      
iter: 132  12:12:17  -1.20  -1.64   -17.474496    0      1      
iter: 133  12:12:25  -1.21  -1.46   -17.479287    0      1      
iter: 134  12:12:32  -1.17  -1.64   -17.474544    0      1      
iter: 135  12:12:40  -1.25  -1.46   -17.479200    0      1      
iter: 136  12:12:48  -1.14  -1.64   -17.474637    0      1      
iter: 137  12:12:55  -1.14  -1.46   -17.479163    0      1      
iter: 138  12:13:03  -1.20  -1.64   -17.474497    0      1      
iter: 139  12:13:11  -1.21  -1.46   -17.479287    0      1      
iter: 140  12:13:18  -1.17  -1.64   -17.474544    0      1      
iter: 141  12:13:26  -1.25  -1.46   -17.479199    0      1      
iter: 142  12:13:34  -1.14  -1.64   -17.474637    0      1      
iter: 143  12:13:41  -1.14  -1.46   -17.479162    0      1      
iter: 144  12:13:49  -1.20  -1.64   -17.474496    0      1      
iter: 145  12:13:57  -1.21  -1.46   -17.479285    0      1      
iter: 146  12:14:04  -1.17  -1.64   -17.474545    0      1      
iter: 147  12:14:12  -1.25  -1.46   -17.479200    0      1      
iter: 148  12:14:20  -1.14  -1.64   -17.474637    0      1      
iter: 149  12:14:27  -1.14  -1.46   -17.479162    0      1      
iter: 150  12:14:35  -1.20  -1.64   -17.474496    0      1      

Did not converge!

Here are some tips:

1) Make sure the geometry and spin-state is physically sound.
2) Use less aggressive density mixing.
3) Solve the eigenvalue problem more accurately at each scf-step.
4) Use a smoother distribution function for the occupation numbers.
5) Try adding more empty states.
6) Use enough k-points.
7) Don't let your structure optimization algorithm take too large steps.
8) Solve the Poisson equation more accurately.
9) Better initial guess for the wave functions.

See details here:

    https://wiki.fysik.dtu.dk/gpaw/documentation/convergence.html


Timing:                              incl.     excl.
-----------------------------------------------------------
Hamiltonian:                         9.482     0.000   0.0% |
 Atomic:                             2.837     0.001   0.0% |
  XC Correction:                     2.836     2.836   0.2% |
 Calculate atomic Hamiltonians:      0.004     0.004   0.0% |
 Communicate:                        0.000     0.000   0.0% |
 Hartree integrate/restrict:         0.006     0.006   0.0% |
 Initialize Hamiltonian:             0.000     0.000   0.0% |
 Poisson:                            1.209     1.209   0.1% |
 XC 3D grid:                         5.424     5.424   0.5% |
 vbar:                               0.002     0.002   0.0% |
LCAO initialization:                 0.678     0.597   0.0% |
 LCAO eigensolver:                   0.026     0.000   0.0% |
  Calculate projections:             0.000     0.000   0.0% |
  DenseAtomicCorrection:             0.000     0.000   0.0% |
  Distribute overlap matrix:         0.000     0.000   0.0% |
  Orbital Layouts:                   0.000     0.000   0.0% |
  Potential matrix:                  0.025     0.025   0.0% |
 LCAO to grid:                       0.050     0.050   0.0% |
 Set positions (LCAO WFS):           0.005     0.000   0.0% |
  Basic WFS set positions:           0.000     0.000   0.0% |
  Basis functions set positions:     0.000     0.000   0.0% |
  TCI: Calculate S, T, P:            0.004     0.004   0.0% |
SCF-cycle:                        1187.817     0.065   0.0% |
 CG:                                95.999    25.240   2.1% ||
  Apply hamiltonian:                25.823    25.823   2.2% ||
  CG: orthonormalize:               12.622     6.308   0.5% |
   CG: overlap:                      5.998     5.998   0.5% |
   CG: overlap2:                     0.316     0.316   0.0% |
  Subspace diag:                    32.314     0.012   0.0% |
   calc_h_matrix:                   24.132     3.962   0.3% |
    Apply hamiltonian:              20.171    20.171   1.7% ||
   diagonalize:                      0.036     0.036   0.0% |
   rotate_psi:                       8.134     8.134   0.7% |
 Density:                            2.727     0.003   0.0% |
  Atomic density matrices:           0.101     0.101   0.0% |
  Mix:                               1.894     1.894   0.2% |
  Multipole moments:                 0.027     0.027   0.0% |
  Pseudo density:                    0.701     0.699   0.1% |
   Symmetrize density:               0.002     0.002   0.0% |
 Hamiltonian:                     1088.984     0.016   0.0% |
  Atomic:                          250.636     0.140   0.0% |
   XC Correction:                  250.497   250.497  20.9% |-------|
  Calculate atomic Hamiltonians:     0.607     0.607   0.1% |
  Communicate:                       0.001     0.001   0.0% |
  Hartree integrate/restrict:        1.024     1.024   0.1% |
  Poisson:                          26.484    26.484   2.2% ||
  XC 3D grid:                      810.012   810.012  67.6% |--------------------------|
  vbar:                              0.203     0.203   0.0% |
 Orthonormalize:                     0.042     0.000   0.0% |
  calc_s_matrix:                     0.013     0.013   0.0% |
  inverse-cholesky:                  0.000     0.000   0.0% |
  projections:                       0.013     0.013   0.0% |
  rotate_psi_s:                      0.016     0.016   0.0% |
Set symmetry:                        0.001     0.001   0.0% |
Other:                               1.064     1.064   0.1% |
-----------------------------------------------------------
Total:                                      1199.043 100.0%

Memory usage: 313.58 MiB
Date: Fri Sep 14 12:14:42 2018
