
  ___ ___ ___ _ _ _  
 |   |   |_  | | | | 
 | | | | | . | | | | 
 |__ |  _|___|_____|  1.4.0
 |___|_|             

User:   ???@93e7e28806d8
Date:   Fri Sep 14 17:32:36 2018
Arch:   x86_64
Pid:    3008
Python: 3.7.0
gpaw:   /app/gpaw/software/venv/lib/python3.7/site-packages/gpaw
_gpaw:  /app/gpaw/software/venv/lib/python3.7/site-packages/
        _gpaw.cpython-37m-x86_64-linux-gnu.so
ase:    /app/gpaw/software/venv/lib/python3.7/site-packages/ase (version 3.16.2)
numpy:  /app/gpaw/software/venv/lib/python3.7/site-packages/numpy (version 1.15.0)
scipy:  /app/gpaw/software/venv/lib/python3.7/site-packages/scipy (version 1.1.0)
units:  Angstrom and eV
cores:  1

Input parameters:
  basis: dzp
  eigensolver: cg
  gpts: [56 56 56]
  maxiter: 150
  mixer: {backend: pulay,
          beta: None,
          method: separate,
          nmaxold: None,
          weight: None}
  xc: M06-L

System changes: positions, numbers, cell, pbc, initial_charges, initial_magmoms 

Initialize ...

Hf-setup:
  name: Hafnium
  id: d03a45b6fa1dd7f07e443d1513edf499
  Z: 72
  valence: 12
  core: 60
  charge: 0.0
  file: /app/gpaw/datasets/Hf.PBE
  cutoffs: 1.30(comp), 2.36(filt), 4.02(core), lmax=2
  valence states:
                energy  radius
    5s(2.00)   -66.831   1.397
    6s(2.00)    -5.097   1.397
    5p(6.00)   -35.599   1.307
    6p(0.00)    -1.401   1.307
    5d(2.00)    -2.699   1.334
    *d          24.513   1.334

  LCAO basis set for Hf:
    Name: dzp
    File: /app/gpaw/datasets/Hf.dzp.basis
    Number of radial functions: 9
    Number of spherical harmonics: 27
      l=0, rc=3.5625 Bohr: 5s-sz confined orbital
      l=0, rc=9.5469 Bohr: 6s-sz confined orbital
      l=1, rc=4.3125 Bohr: 5p-sz confined orbital
      l=2, rc=8.5000 Bohr: 5d-sz confined orbital
      l=0, rc=2.2656 Bohr: 5s-dz split-valence wave
      l=0, rc=5.7812 Bohr: 6s-dz split-valence wave
      l=1, rc=2.6406 Bohr: 5p-dz split-valence wave
      l=2, rc=4.9844 Bohr: 5d-dz split-valence wave
      l=3, rc=8.5000 Bohr: f-type Gaussian polarization

N-setup:
  name: Nitrogen
  id: 45c8c9c739e7b131496b9fd2deb94bff
  Z: 7
  valence: 5
  core: 2
  charge: 0.0
  file: /app/gpaw/datasets/N.PBE
  cutoffs: 0.58(comp), 1.11(filt), 0.96(core), lmax=2
  valence states:
                energy  radius
    2s(2.00)   -18.583   0.603
    2p(3.00)    -7.089   0.529
    *s           8.629   0.603
    *p          20.123   0.529
    *d           0.000   0.577

  LCAO basis set for N:
    Name: dzp
    File: /app/gpaw/datasets/N.dzp.basis
    Number of radial functions: 5
    Number of spherical harmonics: 13
      l=0, rc=4.8594 Bohr: 2s-sz confined orbital
      l=1, rc=6.0625 Bohr: 2p-sz confined orbital
      l=0, rc=2.6094 Bohr: 2s-dz split-valence wave
      l=1, rc=3.2656 Bohr: 2p-dz split-valence wave
      l=2, rc=6.0625 Bohr: d-type Gaussian polarization

C-setup:
  name: Carbon
  id: 2f012631b351e3618121587a96c50fca
  Z: 6
  valence: 4
  core: 2
  charge: 0.0
  file: /app/gpaw/datasets/C.PBE
  cutoffs: 0.64(comp), 1.14(filt), 1.14(core), lmax=2
  valence states:
                energy  radius
    2s(2.00)   -13.751   0.635
    2p(2.00)    -5.285   0.635
    *s          13.461   0.635
    *p          21.927   0.635
    *d           0.000   0.635

  LCAO basis set for C:
    Name: dzp
    File: /app/gpaw/datasets/C.dzp.basis
    Number of radial functions: 5
    Number of spherical harmonics: 13
      l=0, rc=5.5938 Bohr: 2s-sz confined orbital
      l=1, rc=6.8750 Bohr: 2p-sz confined orbital
      l=0, rc=3.0938 Bohr: 2s-dz split-valence wave
      l=1, rc=3.8125 Bohr: 2p-dz split-valence wave
      l=2, rc=6.8750 Bohr: d-type Gaussian polarization

Reference energy: -412395.464894

Spin-paired calculation

Occupation numbers:
  Fermi-Dirac: width=0.0000 eV

Convergence criteria:
  Maximum total energy change: 0.0005 eV / electron
  Maximum integral of absolute density change: 0.0001 electrons
  Maximum integral of absolute eigenstate change: 4e-08 eV^2
  Maximum number of iterations: 150

Symmetries present (total): 1

  ( 1  0  0)
  ( 0  1  0)
  ( 0  0  1)

1 k-point (Gamma)
1 k-point in the irreducible part of the Brillouin zone
       k-points in crystal coordinates                weights
   0:     0.00000000    0.00000000    0.00000000          1/1

Wave functions: Uniform real-space grid
  Kinetic energy operator: 6*3+1=19 point O(h^6) finite-difference Laplacian
  ScaLapack parameters: grid=1x1, blocksize=None 

Eigensolver
   CG(niter=4, rtol=3.0e-01) 

Densities:
  Coarse grid: 56*56*56 grid
  Fine grid: 112*112*112 grid
  Total Charge: 0.000000 

Density mixing:
  Method: separate
  Backend: pulay
  Linear mixing parameter: 0.25
  Mixing with 3 old densities
  No damping of long wave oscillations 

Hamiltonian:
  XC and Coulomb potentials evaluated on a 112*112*112 grid
  Using the M06-L Exchange-Correlation functional
  Interpolation: tri-quintic (5. degree polynomial)
  Poisson solver: Jacobi solver with 5 multi-grid levels
    Coarsest grid: 7 x 7 x 7 points
    Stencil: 6*3+1=19 point O(h^6) finite-difference Laplacian
    Max iterations: 1000
    Tolerance: 2.000000e-10 

Memory estimate:
  Process memory now: 41.73 MiB
  Calculator: 198.44 MiB
    Density: 80.53 MiB
      Arrays: 33.84 MiB
      Localized functions: 39.07 MiB
      Mixer: 7.62 MiB
    Hamiltonian: 52.63 MiB
      Arrays: 22.14 MiB
      XC: 2.54 MiB
      Poisson: 25.33 MiB
      vbar: 2.62 MiB
    Wavefunctions: 65.28 MiB
      Arrays psit_nG: 26.66 MiB
      Eigensolver: 33.00 MiB
      Projections: 0.01 MiB
      Projectors: 5.61 MiB

Total number of cores used: 1

Number of atoms: 3
Number of atomic orbitals: 53
Number of bands in calculation: 21
Bands to converge: occupied states only
Number of valence electrons: 21

... initialized

Initializing position-dependent things.

Density initialized from atomic densities
Creating initial wave functions:
  21 bands from LCAO basis set

     .---------------.  
    /|               |  
   / |               |  
  /  |               |  
 *   |               |  
 |   |               |  
 |   | N   Hf  C     |  
 |   |               |  
 |   .---------------.  
 |  /               /   
 | /               /    
 |/               /     
 *---------------*      

Positions:
   0 Hf     3.160000    3.550000    3.250000    ( 0.0000,  0.0000,  0.0000)
   1 N      1.590000    2.950000    3.250000    ( 0.0000,  0.0000,  0.0000)
   2 C      4.910000    2.950000    3.250000    ( 0.0000,  0.0000,  0.0000)

Unit cell:
           periodic     x           y           z      points  spacing
  1. axis:    no     6.500000    0.000000    0.000000    56     0.1161
  2. axis:    no     0.000000    6.500000    0.000000    56     0.1161
  3. axis:    no     0.000000    0.000000    6.500000    56     0.1161

  Lengths:   6.500000   6.500000   6.500000
  Angles:   90.000000  90.000000  90.000000

Effective grid spacing dv^(1/3) = 0.1161

                     log10-error:    total        iterations:
           time      wfs    density  energy       fermi  poisson
iter:   1  17:33:05  +3.55   +inf  -593.107102    0      13     
iter:   2  17:33:08  +4.16   +inf  -1620.585348    0             
iter:   3  17:33:10  +3.67   +inf  -2210.470570    0             
iter:   4  17:33:32  +3.79  +0.06   -97.292356    0      14     
iter:   5  17:33:53  +3.12  -0.20   -36.950389    0      12     
iter:   6  17:34:14  +2.61  -0.39   -55.821207    0      12     
iter:   7  17:34:35  +2.36  -0.46   -44.376203    0      13     
iter:   8  17:34:57  +5.08  -0.36  -1067.334016    0      11     
iter:   9  17:35:18  +3.73  -0.31   312.868859    0      10     
iter:  10  17:35:38  +3.45  -0.41    64.857864    0      9      
iter:  11  17:35:59  +2.75  -0.46    -2.396372    0      10     
iter:  12  17:36:19  +2.15  -0.48   -19.514437    0      9      
iter:  13  17:36:40  +1.75  -0.46   -23.677472    0      10     
iter:  14  17:37:01  +1.49  -0.53   -18.483139    0      10     
iter:  15  17:37:22  +1.25  -0.74   -17.477223    0      10     
iter:  16  17:37:43  +0.51  -0.98   -17.944702    0      9      
iter:  17  17:38:03  -0.07  -1.12   -18.254952    0      8      
iter:  18  17:38:24  -0.30  -1.25   -18.989915    0      9      
iter:  19  17:38:44  -0.94  -1.68   -19.085648    0      7      
iter:  20  17:39:04  -1.20  -1.92   -19.100565    0      6      
iter:  21  17:39:24  -1.42  -2.12   -19.109455    0      6      
iter:  22  17:39:43  -1.82  -2.37   -19.114407    0      5      
iter:  23  17:40:03  -2.26  -2.51   -19.116540    0      5      
iter:  24  17:40:23  -2.46  -2.60   -19.117758    0      5      
iter:  25  17:40:43  -2.66  -2.86   -19.118375    0      5      
iter:  26  17:41:02  -3.05  -3.07   -19.118538    0      4      
iter:  27  17:41:22  -3.44  -3.21   -19.118687    0      4      
iter:  28  17:41:41  -3.74  -3.51   -19.118673    0      3      
iter:  29  17:42:01  -4.35  -3.66   -19.118695    0      3      
iter:  30  17:42:20  -4.33  -3.82   -19.118702    0      3      
iter:  31  17:42:40  -4.63  -4.12   -19.118697    0      2      
iter:  32  17:42:59  -5.04  -4.22   -19.118696    0      2      
iter:  33  17:43:18  -5.06  -4.36   -19.118713    0      2      
iter:  34  17:43:38  -5.39  -4.76   -19.118723    0      1      
iter:  35  17:43:57  -5.89  -4.84   -19.118757    0      1      
iter:  36  17:44:16  -6.21  -4.91   -19.118791    0      1      
iter:  37  17:44:34  -6.48  -5.11   -19.118755    0      1      
iter:  38  17:44:53  -6.69  -5.26   -19.118746    0      1      
iter:  39  17:45:12  -6.84  -5.46   -19.118729    0      1      
iter:  40  17:45:31  -7.22  -5.72   -19.118730    0      1      
iter:  41  17:45:50  -7.47  -5.89   -19.118726    0      1      

Converged after 41 iterations.

Dipole moment: (0.153757, 1.082856, -0.000000) |e|*Ang

Energy contributions relative to reference atoms: (reference = -412395.464894)

Kinetic:        +33.218737
Potential:      -22.930760
External:        +0.000000
XC:             -29.520500
Entropy (-ST):   +0.000000
Local:           +0.113797
--------------------------
Free energy:    -19.118726
Extrapolated:   -19.118726

Fermi level: -3.71270

 Band  Eigenvalues  Occupancy
    0    -66.21540    2.00000
    1    -35.36588    2.00000
    2    -34.89097    2.00000
    3    -34.86729    2.00000
    4    -16.67752    2.00000
    5    -12.27825    2.00000
    6     -6.16494    2.00000
    7     -6.00127    2.00000
    8     -5.62173    2.00000
    9     -4.19623    2.00000
   10     -3.71270    1.00000
   11     -2.12493    0.00000
   12     -1.67941    0.00000
   13     -0.72041    0.00000
   14     -0.32648    0.00000
   15      2.77126    0.00000
   16      3.07393    0.00000
   17      3.43412    0.00000
   18      3.76536    0.00000
   19      6.93854    0.00000
   20      7.99173    0.00000

Writing to 3_27462_Pm_M06-L_R44_1536946356.gpw (mode='all')

Timing:                              incl.     excl.
-----------------------------------------------------------
Hamiltonian:                        20.257     0.000   0.0% |
 Atomic:                             2.738     0.001   0.0% |
  XC Correction:                     2.737     2.737   0.3% |
 Calculate atomic Hamiltonians:      0.009     0.009   0.0% |
 Communicate:                        0.000     0.000   0.0% |
 Hartree integrate/restrict:         0.019     0.019   0.0% |
 Initialize Hamiltonian:             0.000     0.000   0.0% |
 Poisson:                            2.949     2.949   0.4% |
 XC 3D grid:                        14.536    14.536   1.8% ||
 vbar:                               0.006     0.006   0.0% |
LCAO initialization:                 3.566     2.356   0.3% |
 LCAO eigensolver:                   0.141     0.000   0.0% |
  Calculate projections:             0.000     0.000   0.0% |
  DenseAtomicCorrection:             0.000     0.000   0.0% |
  Distribute overlap matrix:         0.000     0.000   0.0% |
  Orbital Layouts:                   0.001     0.001   0.0% |
  Potential matrix:                  0.140     0.140   0.0% |
 LCAO to grid:                       0.243     0.243   0.0% |
 Set positions (LCAO WFS):           0.825     0.000   0.0% |
  Basic WFS set positions:           0.000     0.000   0.0% |
  Basis functions set positions:     0.000     0.000   0.0% |
  TCI: Calculate S, T, P:            0.825     0.825   0.1% |
SCF-cycle:                         768.471     0.025   0.0% |
 CG:                                91.274    25.640   3.2% ||
  Apply hamiltonian:                28.466    28.466   3.6% ||
  CG: orthonormalize:               13.520     7.219   0.9% |
   CG: overlap:                      6.142     6.142   0.8% |
   CG: overlap2:                     0.159     0.159   0.0% |
  Subspace diag:                    23.649     0.003   0.0% |
   calc_h_matrix:                   17.116     2.815   0.4% |
    Apply hamiltonian:              14.301    14.301   1.8% ||
   diagonalize:                      0.010     0.010   0.0% |
   rotate_psi:                       6.521     6.521   0.8% |
 Density:                            1.757     0.001   0.0% |
  Atomic density matrices:           0.026     0.026   0.0% |
  Mix:                               1.280     1.280   0.2% |
  Multipole moments:                 0.007     0.007   0.0% |
  Pseudo density:                    0.444     0.443   0.1% |
   Symmetrize density:               0.001     0.001   0.0% |
 Hamiltonian:                      675.295     0.004   0.0% |
  Atomic:                           62.194     0.035   0.0% |
   XC Correction:                   62.159    62.159   7.8% |--|
  Calculate atomic Hamiltonians:     0.374     0.374   0.0% |
  Communicate:                       0.000     0.000   0.0% |
  Hartree integrate/restrict:        0.721     0.721   0.1% |
  Poisson:                          51.391    51.391   6.5% |--|
  XC 3D grid:                      560.481   560.481  70.6% |---------------------------|
  vbar:                              0.130     0.130   0.0% |
 Orthonormalize:                     0.119     0.000   0.0% |
  calc_s_matrix:                     0.038     0.038   0.0% |
  inverse-cholesky:                  0.000     0.000   0.0% |
  projections:                       0.031     0.031   0.0% |
  rotate_psi_s:                      0.049     0.049   0.0% |
Set symmetry:                        0.001     0.001   0.0% |
Other:                               1.223     1.223   0.2% |
-----------------------------------------------------------
Total:                                       793.518 100.0%

Memory usage: 540.93 MiB
Date: Fri Sep 14 17:45:50 2018
