
  ___ ___ ___ _ _ _  
 |   |   |_  | | | | 
 | | | | | . | | | | 
 |__ |  _|___|_____|  1.4.0
 |___|_|             

User:   ???@93e7e28806d8
Date:   Fri Sep 14 15:41:11 2018
Arch:   x86_64
Pid:    700
Python: 3.7.0
gpaw:   /app/gpaw/software/venv/lib/python3.7/site-packages/gpaw
_gpaw:  /app/gpaw/software/venv/lib/python3.7/site-packages/
        _gpaw.cpython-37m-x86_64-linux-gnu.so
ase:    /app/gpaw/software/venv/lib/python3.7/site-packages/ase (version 3.16.2)
numpy:  /app/gpaw/software/venv/lib/python3.7/site-packages/numpy (version 1.15.0)
scipy:  /app/gpaw/software/venv/lib/python3.7/site-packages/scipy (version 1.1.0)
units:  Angstrom and eV
cores:  1

Input parameters:
  basis: dzp
  eigensolver: cg
  gpts: [56 56 56]
  maxiter: 150
  mixer: {backend: pulay,
          beta: None,
          method: separate,
          nmaxold: None,
          weight: None}
  xc: M06-L

System changes: positions, numbers, cell, pbc, initial_charges, initial_magmoms 

Initialize ...

Hf-setup:
  name: Hafnium
  id: d03a45b6fa1dd7f07e443d1513edf499
  Z: 72
  valence: 12
  core: 60
  charge: 0.0
  file: /app/gpaw/datasets/Hf.PBE
  cutoffs: 1.30(comp), 2.36(filt), 4.02(core), lmax=2
  valence states:
                energy  radius
    5s(2.00)   -66.831   1.397
    6s(2.00)    -5.097   1.397
    5p(6.00)   -35.599   1.307
    6p(0.00)    -1.401   1.307
    5d(2.00)    -2.699   1.334
    *d          24.513   1.334

  LCAO basis set for Hf:
    Name: dzp
    File: /app/gpaw/datasets/Hf.dzp.basis
    Number of radial functions: 9
    Number of spherical harmonics: 27
      l=0, rc=3.5625 Bohr: 5s-sz confined orbital
      l=0, rc=9.5469 Bohr: 6s-sz confined orbital
      l=1, rc=4.3125 Bohr: 5p-sz confined orbital
      l=2, rc=8.5000 Bohr: 5d-sz confined orbital
      l=0, rc=2.2656 Bohr: 5s-dz split-valence wave
      l=0, rc=5.7812 Bohr: 6s-dz split-valence wave
      l=1, rc=2.6406 Bohr: 5p-dz split-valence wave
      l=2, rc=4.9844 Bohr: 5d-dz split-valence wave
      l=3, rc=8.5000 Bohr: f-type Gaussian polarization

N-setup:
  name: Nitrogen
  id: 45c8c9c739e7b131496b9fd2deb94bff
  Z: 7
  valence: 5
  core: 2
  charge: 0.0
  file: /app/gpaw/datasets/N.PBE
  cutoffs: 0.58(comp), 1.11(filt), 0.96(core), lmax=2
  valence states:
                energy  radius
    2s(2.00)   -18.583   0.603
    2p(3.00)    -7.089   0.529
    *s           8.629   0.603
    *p          20.123   0.529
    *d           0.000   0.577

  LCAO basis set for N:
    Name: dzp
    File: /app/gpaw/datasets/N.dzp.basis
    Number of radial functions: 5
    Number of spherical harmonics: 13
      l=0, rc=4.8594 Bohr: 2s-sz confined orbital
      l=1, rc=6.0625 Bohr: 2p-sz confined orbital
      l=0, rc=2.6094 Bohr: 2s-dz split-valence wave
      l=1, rc=3.2656 Bohr: 2p-dz split-valence wave
      l=2, rc=6.0625 Bohr: d-type Gaussian polarization

C-setup:
  name: Carbon
  id: 2f012631b351e3618121587a96c50fca
  Z: 6
  valence: 4
  core: 2
  charge: 0.0
  file: /app/gpaw/datasets/C.PBE
  cutoffs: 0.64(comp), 1.14(filt), 1.14(core), lmax=2
  valence states:
                energy  radius
    2s(2.00)   -13.751   0.635
    2p(2.00)    -5.285   0.635
    *s          13.461   0.635
    *p          21.927   0.635
    *d           0.000   0.635

  LCAO basis set for C:
    Name: dzp
    File: /app/gpaw/datasets/C.dzp.basis
    Number of radial functions: 5
    Number of spherical harmonics: 13
      l=0, rc=5.5938 Bohr: 2s-sz confined orbital
      l=1, rc=6.8750 Bohr: 2p-sz confined orbital
      l=0, rc=3.0938 Bohr: 2s-dz split-valence wave
      l=1, rc=3.8125 Bohr: 2p-dz split-valence wave
      l=2, rc=6.8750 Bohr: d-type Gaussian polarization

Reference energy: -412395.464894

Spin-paired calculation

Occupation numbers:
  Fermi-Dirac: width=0.0000 eV

Convergence criteria:
  Maximum total energy change: 0.0005 eV / electron
  Maximum integral of absolute density change: 0.0001 electrons
  Maximum integral of absolute eigenstate change: 4e-08 eV^2
  Maximum number of iterations: 150

Symmetries present (total): 1

  ( 1  0  0)
  ( 0  1  0)
  ( 0  0  1)

1 k-point (Gamma)
1 k-point in the irreducible part of the Brillouin zone
       k-points in crystal coordinates                weights
   0:     0.00000000    0.00000000    0.00000000          1/1

Wave functions: Uniform real-space grid
  Kinetic energy operator: 6*3+1=19 point O(h^6) finite-difference Laplacian
  ScaLapack parameters: grid=1x1, blocksize=None 

Eigensolver
   CG(niter=4, rtol=3.0e-01) 

Densities:
  Coarse grid: 56*56*56 grid
  Fine grid: 112*112*112 grid
  Total Charge: 0.000000 

Density mixing:
  Method: separate
  Backend: pulay
  Linear mixing parameter: 0.25
  Mixing with 3 old densities
  No damping of long wave oscillations 

Hamiltonian:
  XC and Coulomb potentials evaluated on a 112*112*112 grid
  Using the M06-L Exchange-Correlation functional
  Interpolation: tri-quintic (5. degree polynomial)
  Poisson solver: Jacobi solver with 5 multi-grid levels
    Coarsest grid: 7 x 7 x 7 points
    Stencil: 6*3+1=19 point O(h^6) finite-difference Laplacian
    Max iterations: 1000
    Tolerance: 2.000000e-10 

Memory estimate:
  Process memory now: 41.73 MiB
  Calculator: 198.44 MiB
    Density: 80.53 MiB
      Arrays: 33.84 MiB
      Localized functions: 39.07 MiB
      Mixer: 7.62 MiB
    Hamiltonian: 52.63 MiB
      Arrays: 22.14 MiB
      XC: 2.54 MiB
      Poisson: 25.33 MiB
      vbar: 2.62 MiB
    Wavefunctions: 65.28 MiB
      Arrays psit_nG: 26.66 MiB
      Eigensolver: 33.00 MiB
      Projections: 0.01 MiB
      Projectors: 5.61 MiB

Total number of cores used: 1

Number of atoms: 3
Number of atomic orbitals: 53
Number of bands in calculation: 21
Bands to converge: occupied states only
Number of valence electrons: 21

... initialized

Initializing position-dependent things.

Density initialized from atomic densities
Creating initial wave functions:
  21 bands from LCAO basis set

     .---------------.  
    /|               |  
   / |               |  
  /  |               |  
 *   |               |  
 |   |               |  
 |   | N   Hf  C     |  
 |   |               |  
 |   .---------------.  
 |  /               /   
 | /               /    
 |/               /     
 *---------------*      

Positions:
   0 Hf     3.125000    3.425000    3.250000    ( 0.0000,  0.0000,  0.0000)
   1 N      1.525000    3.075000    3.250000    ( 0.0000,  0.0000,  0.0000)
   2 C      4.975000    3.075000    3.250000    ( 0.0000,  0.0000,  0.0000)

Unit cell:
           periodic     x           y           z      points  spacing
  1. axis:    no     6.500000    0.000000    0.000000    56     0.1161
  2. axis:    no     0.000000    6.500000    0.000000    56     0.1161
  3. axis:    no     0.000000    0.000000    6.500000    56     0.1161

  Lengths:   6.500000   6.500000   6.500000
  Angles:   90.000000  90.000000  90.000000

Effective grid spacing dv^(1/3) = 0.1161

                     log10-error:    total        iterations:
           time      wfs    density  energy       fermi  poisson
iter:   1  15:41:40  +3.36   +inf  -496.335715    0      13     
iter:   2  15:41:43  +3.74   +inf  -884.023573    0             
iter:   3  15:41:46  +3.78   +inf  -1176.829655    0             
iter:   4  15:42:07  +3.53  -0.01    48.171625    0      14     
iter:   5  15:42:29  +3.49  -0.15    24.185152    0      12     
iter:   6  15:42:51  +2.56  -0.46   -24.010469    0      11     
iter:   7  15:43:12  +2.07  -0.57   -15.728571    0      12     
iter:   8  15:43:34  +1.30  -0.64   -14.661430    0      12     
iter:   9  15:43:55  +1.49  -0.93   -16.243380    0      10     
iter:  10  15:44:16  +1.46  -1.08   -18.584460    0      8      
iter:  11  15:44:37  +0.48  -0.87   -19.020460    0      8      
iter:  12  15:44:59  +0.33  -0.78   -17.665816    0      9      
iter:  13  15:45:20  +0.16  -0.87   -17.702354    0      9      
iter:  14  15:45:42  -0.27  -0.96   -17.813223    0      8      
iter:  15  15:46:04  -0.17  -1.14   -17.984401    0      9      
iter:  16  15:46:25  -0.61  -1.68   -18.057253    0      7      
iter:  17  15:46:47  -1.22  -1.93   -18.081736    0      6      
iter:  18  15:47:08  -1.13  -2.08   -18.094698    0      6      
iter:  19  15:47:28  -1.46  -2.51   -18.098911    0      5      
iter:  20  15:47:49  -2.29  -2.66   -18.100698    0      4      
iter:  21  15:48:09  -3.03  -2.58   -18.101461    0      4      
iter:  22  15:48:30  -3.27  -2.67   -18.101999    0      4      
iter:  23  15:48:51  -2.83  -2.73   -18.102591    0      5      
iter:  24  15:49:11  -2.83  -3.05   -18.103008    0      4      
iter:  25  15:49:32  -3.01  -3.37   -18.103275    0      3      
iter:  26  15:49:53  -3.86  -3.52   -18.103394    0      3      
iter:  27  15:50:13  -3.78  -3.71   -18.103437    0      2      
iter:  28  15:50:33  -3.96  -3.84   -18.103403    0      2      
iter:  29  15:50:53  -4.00  -3.88   -18.103425    0      2      
iter:  30  15:51:13  -4.13  -4.00   -18.103453    0      3      
iter:  31  15:51:32  -4.48  -4.33   -18.103451    0      1      
iter:  32  15:51:52  -4.91  -4.12   -18.103443    0      2      
iter:  33  15:52:12  -4.92  -3.88   -18.103464    0      2      
iter:  34  15:52:31  -4.54  -4.20   -18.103455    0      2      
iter:  35  15:52:51  -4.64  -4.54   -18.103455    0      2      
iter:  36  15:53:10  -4.97  -4.88   -18.103456    0      1      
iter:  37  15:53:30  -5.29  -4.99   -18.103468    0      1      
iter:  38  15:53:49  -5.74  -4.94   -18.103466    0      1      
iter:  39  15:54:09  -6.78  -4.73   -18.103469    0      1      
iter:  40  15:54:29  -7.59  -4.67   -18.103458    0      1      

Converged after 40 iterations.

Dipole moment: (0.061370, 0.847036, 0.000000) |e|*Ang

Energy contributions relative to reference atoms: (reference = -412395.464894)

Kinetic:        +39.070668
Potential:      -27.182845
External:        +0.000000
XC:             -30.137762
Entropy (-ST):   +0.000000
Local:           +0.146481
--------------------------
Free energy:    -18.103458
Extrapolated:   -18.103458

Fermi level: -3.72895

 Band  Eigenvalues  Occupancy
    0    -66.50942    2.00000
    1    -35.73948    2.00000
    2    -35.17314    2.00000
    3    -35.14367    2.00000
    4    -16.80186    2.00000
    5    -12.05372    2.00000
    6     -6.49757    2.00000
    7     -6.44267    2.00000
    8     -5.40547    2.00000
    9     -3.89224    2.00000
   10     -3.72895    1.00000
   11     -2.29504    0.00000
   12     -1.01936    0.00000
   13     -0.86108    0.00000
   14      1.05548    0.00000
   15      2.83318    0.00000
   16      3.12865    0.00000
   17      3.42950    0.00000
   18      6.32891    0.00000
   19      6.94727    0.00000
   20      7.99357    0.00000

Writing to 3_27462_Pm_M06-L_R29_1536939671.gpw (mode='all')

Timing:                              incl.     excl.
-----------------------------------------------------------
Hamiltonian:                        20.324     0.000   0.0% |
 Atomic:                             2.757     0.001   0.0% |
  XC Correction:                     2.756     2.756   0.3% |
 Calculate atomic Hamiltonians:      0.010     0.010   0.0% |
 Communicate:                        0.000     0.000   0.0% |
 Hartree integrate/restrict:         0.020     0.020   0.0% |
 Initialize Hamiltonian:             0.000     0.000   0.0% |
 Poisson:                            3.002     3.002   0.4% |
 XC 3D grid:                        14.529    14.529   1.8% ||
 vbar:                               0.006     0.006   0.0% |
LCAO initialization:                 3.565     2.359   0.3% |
 LCAO eigensolver:                   0.141     0.000   0.0% |
  Calculate projections:             0.000     0.000   0.0% |
  DenseAtomicCorrection:             0.000     0.000   0.0% |
  Distribute overlap matrix:         0.000     0.000   0.0% |
  Orbital Layouts:                   0.001     0.001   0.0% |
  Potential matrix:                  0.139     0.139   0.0% |
 LCAO to grid:                       0.245     0.245   0.0% |
 Set positions (LCAO WFS):           0.820     0.000   0.0% |
  Basic WFS set positions:           0.000     0.000   0.0% |
  Basis functions set positions:     0.000     0.000   0.0% |
  TCI: Calculate S, T, P:            0.819     0.819   0.1% |
SCF-cycle:                         772.434     0.028   0.0% |
 CG:                                96.661    26.055   3.3% ||
  Apply hamiltonian:                28.660    28.660   3.6% ||
  CG: orthonormalize:               14.457     7.626   1.0% |
   CG: overlap:                      6.678     6.678   0.8% |
   CG: overlap2:                     0.153     0.153   0.0% |
  Subspace diag:                    27.489     0.003   0.0% |
   calc_h_matrix:                   19.595     3.820   0.5% |
    Apply hamiltonian:              15.775    15.775   2.0% ||
   diagonalize:                      0.010     0.010   0.0% |
   rotate_psi:                       7.881     7.881   1.0% |
 Density:                            1.852     0.001   0.0% |
  Atomic density matrices:           0.026     0.026   0.0% |
  Mix:                               1.339     1.339   0.2% |
  Multipole moments:                 0.007     0.007   0.0% |
  Pseudo density:                    0.480     0.479   0.1% |
   Symmetrize density:               0.001     0.001   0.0% |
 Hamiltonian:                      673.774     0.004   0.0% |
  Atomic:                           64.124     0.035   0.0% |
   XC Correction:                   64.089    64.089   8.0% |--|
  Calculate atomic Hamiltonians:     0.377     0.377   0.0% |
  Communicate:                       0.000     0.000   0.0% |
  Hartree integrate/restrict:        0.871     0.871   0.1% |
  Poisson:                          47.124    47.124   5.9% |-|
  XC 3D grid:                      561.121   561.121  70.4% |---------------------------|
  vbar:                              0.152     0.152   0.0% |
 Orthonormalize:                     0.118     0.000   0.0% |
  calc_s_matrix:                     0.038     0.038   0.0% |
  inverse-cholesky:                  0.000     0.000   0.0% |
  projections:                       0.031     0.031   0.0% |
  rotate_psi_s:                      0.049     0.049   0.0% |
Set symmetry:                        0.001     0.001   0.0% |
Other:                               1.223     1.223   0.2% |
-----------------------------------------------------------
Total:                                       797.547 100.0%

Memory usage: 540.85 MiB
Date: Fri Sep 14 15:54:29 2018
