
  ___ ___ ___ _ _ _  
 |   |   |_  | | | | 
 | | | | | . | | | | 
 |__ |  _|___|_____|  1.4.0
 |___|_|             

User:   ???@93e7e28806d8
Date:   Fri Sep 14 18:15:58 2018
Arch:   x86_64
Pid:    4028
Python: 3.7.0
gpaw:   /app/gpaw/software/venv/lib/python3.7/site-packages/gpaw
_gpaw:  /app/gpaw/software/venv/lib/python3.7/site-packages/
        _gpaw.cpython-37m-x86_64-linux-gnu.so
ase:    /app/gpaw/software/venv/lib/python3.7/site-packages/ase (version 3.16.2)
numpy:  /app/gpaw/software/venv/lib/python3.7/site-packages/numpy (version 1.15.0)
scipy:  /app/gpaw/software/venv/lib/python3.7/site-packages/scipy (version 1.1.0)
units:  Angstrom and eV
cores:  1

Input parameters:
  basis: dzp
  eigensolver: cg
  gpts: [56 56 56]
  maxiter: 150
  mixer: {backend: pulay,
          beta: None,
          method: separate,
          nmaxold: None,
          weight: None}
  xc: M06-L

System changes: positions, numbers, cell, pbc, initial_charges, initial_magmoms 

Initialize ...

Hf-setup:
  name: Hafnium
  id: d03a45b6fa1dd7f07e443d1513edf499
  Z: 72
  valence: 12
  core: 60
  charge: 0.0
  file: /app/gpaw/datasets/Hf.PBE
  cutoffs: 1.30(comp), 2.36(filt), 4.02(core), lmax=2
  valence states:
                energy  radius
    5s(2.00)   -66.831   1.397
    6s(2.00)    -5.097   1.397
    5p(6.00)   -35.599   1.307
    6p(0.00)    -1.401   1.307
    5d(2.00)    -2.699   1.334
    *d          24.513   1.334

  LCAO basis set for Hf:
    Name: dzp
    File: /app/gpaw/datasets/Hf.dzp.basis
    Number of radial functions: 9
    Number of spherical harmonics: 27
      l=0, rc=3.5625 Bohr: 5s-sz confined orbital
      l=0, rc=9.5469 Bohr: 6s-sz confined orbital
      l=1, rc=4.3125 Bohr: 5p-sz confined orbital
      l=2, rc=8.5000 Bohr: 5d-sz confined orbital
      l=0, rc=2.2656 Bohr: 5s-dz split-valence wave
      l=0, rc=5.7812 Bohr: 6s-dz split-valence wave
      l=1, rc=2.6406 Bohr: 5p-dz split-valence wave
      l=2, rc=4.9844 Bohr: 5d-dz split-valence wave
      l=3, rc=8.5000 Bohr: f-type Gaussian polarization

N-setup:
  name: Nitrogen
  id: 45c8c9c739e7b131496b9fd2deb94bff
  Z: 7
  valence: 5
  core: 2
  charge: 0.0
  file: /app/gpaw/datasets/N.PBE
  cutoffs: 0.58(comp), 1.11(filt), 0.96(core), lmax=2
  valence states:
                energy  radius
    2s(2.00)   -18.583   0.603
    2p(3.00)    -7.089   0.529
    *s           8.629   0.603
    *p          20.123   0.529
    *d           0.000   0.577

  LCAO basis set for N:
    Name: dzp
    File: /app/gpaw/datasets/N.dzp.basis
    Number of radial functions: 5
    Number of spherical harmonics: 13
      l=0, rc=4.8594 Bohr: 2s-sz confined orbital
      l=1, rc=6.0625 Bohr: 2p-sz confined orbital
      l=0, rc=2.6094 Bohr: 2s-dz split-valence wave
      l=1, rc=3.2656 Bohr: 2p-dz split-valence wave
      l=2, rc=6.0625 Bohr: d-type Gaussian polarization

C-setup:
  name: Carbon
  id: 2f012631b351e3618121587a96c50fca
  Z: 6
  valence: 4
  core: 2
  charge: 0.0
  file: /app/gpaw/datasets/C.PBE
  cutoffs: 0.64(comp), 1.14(filt), 1.14(core), lmax=2
  valence states:
                energy  radius
    2s(2.00)   -13.751   0.635
    2p(2.00)    -5.285   0.635
    *s          13.461   0.635
    *p          21.927   0.635
    *d           0.000   0.635

  LCAO basis set for C:
    Name: dzp
    File: /app/gpaw/datasets/C.dzp.basis
    Number of radial functions: 5
    Number of spherical harmonics: 13
      l=0, rc=5.5938 Bohr: 2s-sz confined orbital
      l=1, rc=6.8750 Bohr: 2p-sz confined orbital
      l=0, rc=3.0938 Bohr: 2s-dz split-valence wave
      l=1, rc=3.8125 Bohr: 2p-dz split-valence wave
      l=2, rc=6.8750 Bohr: d-type Gaussian polarization

Reference energy: -412395.464894

Spin-paired calculation

Occupation numbers:
  Fermi-Dirac: width=0.0000 eV

Convergence criteria:
  Maximum total energy change: 0.0005 eV / electron
  Maximum integral of absolute density change: 0.0001 electrons
  Maximum integral of absolute eigenstate change: 4e-08 eV^2
  Maximum number of iterations: 150

Symmetries present (total): 1

  ( 1  0  0)
  ( 0  1  0)
  ( 0  0  1)

1 k-point (Gamma)
1 k-point in the irreducible part of the Brillouin zone
       k-points in crystal coordinates                weights
   0:     0.00000000    0.00000000    0.00000000          1/1

Wave functions: Uniform real-space grid
  Kinetic energy operator: 6*3+1=19 point O(h^6) finite-difference Laplacian
  ScaLapack parameters: grid=1x1, blocksize=None 

Eigensolver
   CG(niter=4, rtol=3.0e-01) 

Densities:
  Coarse grid: 56*56*56 grid
  Fine grid: 112*112*112 grid
  Total Charge: 0.000000 

Density mixing:
  Method: separate
  Backend: pulay
  Linear mixing parameter: 0.25
  Mixing with 3 old densities
  No damping of long wave oscillations 

Hamiltonian:
  XC and Coulomb potentials evaluated on a 112*112*112 grid
  Using the M06-L Exchange-Correlation functional
  Interpolation: tri-quintic (5. degree polynomial)
  Poisson solver: Jacobi solver with 5 multi-grid levels
    Coarsest grid: 7 x 7 x 7 points
    Stencil: 6*3+1=19 point O(h^6) finite-difference Laplacian
    Max iterations: 1000
    Tolerance: 2.000000e-10 

Memory estimate:
  Process memory now: 41.62 MiB
  Calculator: 198.44 MiB
    Density: 80.53 MiB
      Arrays: 33.84 MiB
      Localized functions: 39.07 MiB
      Mixer: 7.62 MiB
    Hamiltonian: 52.63 MiB
      Arrays: 22.14 MiB
      XC: 2.54 MiB
      Poisson: 25.33 MiB
      vbar: 2.62 MiB
    Wavefunctions: 65.28 MiB
      Arrays psit_nG: 26.66 MiB
      Eigensolver: 33.00 MiB
      Projections: 0.01 MiB
      Projectors: 5.61 MiB

Total number of cores used: 1

Number of atoms: 3
Number of atomic orbitals: 53
Number of bands in calculation: 21
Bands to converge: occupied states only
Number of valence electrons: 21

... initialized

Initializing position-dependent things.

Density initialized from atomic densities
Creating initial wave functions:
  21 bands from LCAO basis set

     .---------------.  
    /|               |  
   / |               |  
  /  |               |  
 *   |               |  
 |   |               |  
 |   | N   Hf  C     |  
 |   |               |  
 |   .---------------.  
 |  /               /   
 | /               /    
 |/               /     
 *---------------*      

Positions:
   0 Hf     3.190000    3.600000    3.250000    ( 0.0000,  0.0000,  0.0000)
   1 N      1.580000    2.900000    3.250000    ( 0.0000,  0.0000,  0.0000)
   2 C      4.920000    2.900000    3.250000    ( 0.0000,  0.0000,  0.0000)

Unit cell:
           periodic     x           y           z      points  spacing
  1. axis:    no     6.500000    0.000000    0.000000    56     0.1161
  2. axis:    no     0.000000    6.500000    0.000000    56     0.1161
  3. axis:    no     0.000000    0.000000    6.500000    56     0.1161

  Lengths:   6.500000   6.500000   6.500000
  Angles:   90.000000  90.000000  90.000000

Effective grid spacing dv^(1/3) = 0.1161

                     log10-error:    total        iterations:
           time      wfs    density  energy       fermi  poisson
iter:   1  18:16:27  +3.47   +inf  -549.113736    0      13     
iter:   2  18:16:29  +3.82   +inf  -1330.609046    0             
iter:   3  18:16:32  +3.55   +inf  -1821.419210    0             
iter:   4  18:16:54  +3.50  +0.05   -80.991765    0      14     
iter:   5  18:17:16  +3.21  -0.21   -50.735096    0      12     
iter:   6  18:17:37  +2.80  -0.40   -37.592336    0      12     
iter:   7  18:17:59  +2.38  -0.50   -54.751329    0      13     
iter:   8  18:18:21  +1.59  -0.36   -37.145767    0      11     
iter:   9  18:18:42  +1.82  -0.42   -21.921577    0      11     
iter:  10  18:19:03  +1.32  -0.62   -20.415217    0      10     
iter:  11  18:19:24  +0.90  -0.78   -18.782342    0      9      
iter:  12  18:19:45  +0.38  -0.96   -18.886642    0      9      
iter:  13  18:20:06  +0.29  -1.13   -19.110691    0      9      
iter:  14  18:20:27  -0.41  -1.45   -19.378040    0      8      
iter:  15  18:20:48  -0.93  -1.74   -19.397715    0      7      
iter:  16  18:21:08  -1.15  -1.99   -19.406497    0      7      
iter:  17  18:21:28  -1.78  -2.35   -19.410396    0      5      
iter:  18  18:21:49  -2.01  -2.36   -19.411447    0      5      
iter:  19  18:22:08  -2.25  -2.63   -19.412756    0      5      
iter:  20  18:22:29  -2.58  -2.81   -19.413242    0      5      
iter:  21  18:22:48  -2.89  -2.99   -19.413273    0      4      
iter:  22  18:23:08  -3.74  -3.10   -19.413276    0      3      
iter:  23  18:23:28  -3.78  -3.17   -19.413325    0      4      
iter:  24  18:23:48  -4.15  -3.65   -19.413298    0      3      
iter:  25  18:24:07  -4.61  -3.94   -19.413302    0      3      
iter:  26  18:24:26  -5.02  -4.06   -19.413279    0      2      
iter:  27  18:24:46  -5.30  -4.16   -19.413311    0      2      
iter:  28  18:25:05  -5.40  -4.30   -19.413333    0      2      
iter:  29  18:25:24  -5.64  -4.53   -19.413460    0      1      
iter:  30  18:25:44  -6.02  -4.61   -19.413369    0      2      
iter:  31  18:26:02  -6.08  -4.92   -19.413436    0      1      
iter:  32  18:26:21  -6.53  -5.06   -19.413400    0      1      
iter:  33  18:26:40  -6.80  -5.19   -19.413395    0      1      
iter:  34  18:26:59  -7.05  -5.44   -19.413351    0      1      
iter:  35  18:27:18  -7.61  -5.59   -19.413329    0      1      

Converged after 35 iterations.

Dipole moment: (0.251981, 1.144622, 0.000000) |e|*Ang

Energy contributions relative to reference atoms: (reference = -412395.464894)

Kinetic:        +22.856399
Potential:      -14.443484
External:        +0.000000
XC:             -27.863450
Entropy (-ST):   +0.000000
Local:           +0.037206
--------------------------
Free energy:    -19.413329
Extrapolated:   -19.413329

Fermi level: -3.78502

 Band  Eigenvalues  Occupancy
    0    -66.29486    2.00000
    1    -35.12630    2.00000
    2    -34.96537    2.00000
    3    -34.95822    2.00000
    4    -16.62014    2.00000
    5    -12.42367    2.00000
    6     -5.77465    2.00000
    7     -5.69924    2.00000
    8     -5.43986    2.00000
    9     -4.28804    2.00000
   10     -3.78502    1.00000
   11     -2.50175    0.00000
   12     -1.83601    0.00000
   13     -0.72033    0.00000
   14     -0.23300    0.00000
   15      2.40257    0.00000
   16      2.54267    0.00000
   17      3.21741    0.00000
   18      4.02128    0.00000
   19      6.83737    0.00000
   20      7.04455    0.00000

Writing to 3_27462_Pm_M06-L_R46_1536948958.gpw (mode='all')

Timing:                              incl.     excl.
-----------------------------------------------------------
Hamiltonian:                        20.290     0.000   0.0% |
 Atomic:                             2.751     0.001   0.0% |
  XC Correction:                     2.750     2.750   0.4% |
 Calculate atomic Hamiltonians:      0.010     0.010   0.0% |
 Communicate:                        0.000     0.000   0.0% |
 Hartree integrate/restrict:         0.020     0.020   0.0% |
 Initialize Hamiltonian:             0.000     0.000   0.0% |
 Poisson:                            2.962     2.962   0.4% |
 XC 3D grid:                        14.541    14.541   2.1% ||
 vbar:                               0.006     0.006   0.0% |
LCAO initialization:                 3.600     2.393   0.4% |
 LCAO eigensolver:                   0.141     0.000   0.0% |
  Calculate projections:             0.000     0.000   0.0% |
  DenseAtomicCorrection:             0.000     0.000   0.0% |
  Distribute overlap matrix:         0.000     0.000   0.0% |
  Orbital Layouts:                   0.001     0.001   0.0% |
  Potential matrix:                  0.139     0.139   0.0% |
 LCAO to grid:                       0.243     0.243   0.0% |
 Set positions (LCAO WFS):           0.823     0.000   0.0% |
  Basic WFS set positions:           0.000     0.000   0.0% |
  Basis functions set positions:     0.000     0.000   0.0% |
  TCI: Calculate S, T, P:            0.822     0.822   0.1% |
SCF-cycle:                         655.629     0.025   0.0% |
 CG:                                81.869    22.976   3.4% ||
  Apply hamiltonian:                25.211    25.211   3.7% ||
  CG: orthonormalize:               12.316     6.491   1.0% |
   CG: overlap:                      5.690     5.690   0.8% |
   CG: overlap2:                     0.135     0.135   0.0% |
  Subspace diag:                    21.366     0.003   0.0% |
   calc_h_matrix:                   15.323     2.685   0.4% |
    Apply hamiltonian:              12.638    12.638   1.9% ||
   diagonalize:                      0.008     0.008   0.0% |
   rotate_psi:                       6.032     6.032   0.9% |
 Density:                            1.581     0.001   0.0% |
  Atomic density matrices:           0.022     0.022   0.0% |
  Mix:                               1.154     1.154   0.2% |
  Multipole moments:                 0.006     0.006   0.0% |
  Pseudo density:                    0.397     0.397   0.1% |
   Symmetrize density:               0.001     0.001   0.0% |
 Hamiltonian:                      572.031     0.004   0.0% |
  Atomic:                           52.755     0.030   0.0% |
   XC Correction:                   52.725    52.725   7.7% |--|
  Calculate atomic Hamiltonians:     0.315     0.315   0.0% |
  Communicate:                       0.000     0.000   0.0% |
  Hartree integrate/restrict:        0.629     0.629   0.1% |
  Poisson:                          42.407    42.407   6.2% |-|
  XC 3D grid:                      475.799   475.799  69.9% |---------------------------|
  vbar:                              0.122     0.122   0.0% |
 Orthonormalize:                     0.124     0.000   0.0% |
  calc_s_matrix:                     0.039     0.039   0.0% |
  inverse-cholesky:                  0.000     0.000   0.0% |
  projections:                       0.031     0.031   0.0% |
  rotate_psi_s:                      0.054     0.054   0.0% |
Set symmetry:                        0.001     0.001   0.0% |
Other:                               1.238     1.238   0.2% |
-----------------------------------------------------------
Total:                                       680.758 100.0%

Memory usage: 540.70 MiB
Date: Fri Sep 14 18:27:18 2018
