
  ___ ___ ___ _ _ _  
 |   |   |_  | | | | 
 | | | | | . | | | | 
 |__ |  _|___|_____|  1.4.0
 |___|_|             

User:   ???@93e7e28806d8
Date:   Fri Sep 14 14:33:14 2018
Arch:   x86_64
Pid:    674
Python: 3.7.0
gpaw:   /app/gpaw/software/venv/lib/python3.7/site-packages/gpaw
_gpaw:  /app/gpaw/software/venv/lib/python3.7/site-packages/
        _gpaw.cpython-37m-x86_64-linux-gnu.so
ase:    /app/gpaw/software/venv/lib/python3.7/site-packages/ase (version 3.16.2)
numpy:  /app/gpaw/software/venv/lib/python3.7/site-packages/numpy (version 1.15.0)
scipy:  /app/gpaw/software/venv/lib/python3.7/site-packages/scipy (version 1.1.0)
units:  Angstrom and eV
cores:  1

Input parameters:
  basis: dzp
  eigensolver: cg
  gpts: [56 56 56]
  maxiter: 150
  mixer: {backend: pulay,
          beta: None,
          method: separate,
          nmaxold: None,
          weight: None}
  xc: M06-L

System changes: positions, numbers, cell, pbc, initial_charges, initial_magmoms 

Initialize ...

Hf-setup:
  name: Hafnium
  id: d03a45b6fa1dd7f07e443d1513edf499
  Z: 72
  valence: 12
  core: 60
  charge: 0.0
  file: /app/gpaw/datasets/Hf.PBE
  cutoffs: 1.30(comp), 2.36(filt), 4.02(core), lmax=2
  valence states:
                energy  radius
    5s(2.00)   -66.831   1.397
    6s(2.00)    -5.097   1.397
    5p(6.00)   -35.599   1.307
    6p(0.00)    -1.401   1.307
    5d(2.00)    -2.699   1.334
    *d          24.513   1.334

  LCAO basis set for Hf:
    Name: dzp
    File: /app/gpaw/datasets/Hf.dzp.basis
    Number of radial functions: 9
    Number of spherical harmonics: 27
      l=0, rc=3.5625 Bohr: 5s-sz confined orbital
      l=0, rc=9.5469 Bohr: 6s-sz confined orbital
      l=1, rc=4.3125 Bohr: 5p-sz confined orbital
      l=2, rc=8.5000 Bohr: 5d-sz confined orbital
      l=0, rc=2.2656 Bohr: 5s-dz split-valence wave
      l=0, rc=5.7812 Bohr: 6s-dz split-valence wave
      l=1, rc=2.6406 Bohr: 5p-dz split-valence wave
      l=2, rc=4.9844 Bohr: 5d-dz split-valence wave
      l=3, rc=8.5000 Bohr: f-type Gaussian polarization

N-setup:
  name: Nitrogen
  id: 45c8c9c739e7b131496b9fd2deb94bff
  Z: 7
  valence: 5
  core: 2
  charge: 0.0
  file: /app/gpaw/datasets/N.PBE
  cutoffs: 0.58(comp), 1.11(filt), 0.96(core), lmax=2
  valence states:
                energy  radius
    2s(2.00)   -18.583   0.603
    2p(3.00)    -7.089   0.529
    *s           8.629   0.603
    *p          20.123   0.529
    *d           0.000   0.577

  LCAO basis set for N:
    Name: dzp
    File: /app/gpaw/datasets/N.dzp.basis
    Number of radial functions: 5
    Number of spherical harmonics: 13
      l=0, rc=4.8594 Bohr: 2s-sz confined orbital
      l=1, rc=6.0625 Bohr: 2p-sz confined orbital
      l=0, rc=2.6094 Bohr: 2s-dz split-valence wave
      l=1, rc=3.2656 Bohr: 2p-dz split-valence wave
      l=2, rc=6.0625 Bohr: d-type Gaussian polarization

C-setup:
  name: Carbon
  id: 2f012631b351e3618121587a96c50fca
  Z: 6
  valence: 4
  core: 2
  charge: 0.0
  file: /app/gpaw/datasets/C.PBE
  cutoffs: 0.64(comp), 1.14(filt), 1.14(core), lmax=2
  valence states:
                energy  radius
    2s(2.00)   -13.751   0.635
    2p(2.00)    -5.285   0.635
    *s          13.461   0.635
    *p          21.927   0.635
    *d           0.000   0.635

  LCAO basis set for C:
    Name: dzp
    File: /app/gpaw/datasets/C.dzp.basis
    Number of radial functions: 5
    Number of spherical harmonics: 13
      l=0, rc=5.5938 Bohr: 2s-sz confined orbital
      l=1, rc=6.8750 Bohr: 2p-sz confined orbital
      l=0, rc=3.0938 Bohr: 2s-dz split-valence wave
      l=1, rc=3.8125 Bohr: 2p-dz split-valence wave
      l=2, rc=6.8750 Bohr: d-type Gaussian polarization

Reference energy: -412395.464894

Spin-paired calculation

Occupation numbers:
  Fermi-Dirac: width=0.0000 eV

Convergence criteria:
  Maximum total energy change: 0.0005 eV / electron
  Maximum integral of absolute density change: 0.0001 electrons
  Maximum integral of absolute eigenstate change: 4e-08 eV^2
  Maximum number of iterations: 150

Symmetries present (total): 1

  ( 1  0  0)
  ( 0  1  0)
  ( 0  0  1)

1 k-point (Gamma)
1 k-point in the irreducible part of the Brillouin zone
       k-points in crystal coordinates                weights
   0:     0.00000000    0.00000000    0.00000000          1/1

Wave functions: Uniform real-space grid
  Kinetic energy operator: 6*3+1=19 point O(h^6) finite-difference Laplacian
  ScaLapack parameters: grid=1x1, blocksize=None 

Eigensolver
   CG(niter=4, rtol=3.0e-01) 

Densities:
  Coarse grid: 56*56*56 grid
  Fine grid: 112*112*112 grid
  Total Charge: 0.000000 

Density mixing:
  Method: separate
  Backend: pulay
  Linear mixing parameter: 0.25
  Mixing with 3 old densities
  No damping of long wave oscillations 

Hamiltonian:
  XC and Coulomb potentials evaluated on a 112*112*112 grid
  Using the M06-L Exchange-Correlation functional
  Interpolation: tri-quintic (5. degree polynomial)
  Poisson solver: Jacobi solver with 5 multi-grid levels
    Coarsest grid: 7 x 7 x 7 points
    Stencil: 6*3+1=19 point O(h^6) finite-difference Laplacian
    Max iterations: 1000
    Tolerance: 2.000000e-10 

Memory estimate:
  Process memory now: 41.73 MiB
  Calculator: 198.44 MiB
    Density: 80.53 MiB
      Arrays: 33.84 MiB
      Localized functions: 39.07 MiB
      Mixer: 7.62 MiB
    Hamiltonian: 52.63 MiB
      Arrays: 22.14 MiB
      XC: 2.54 MiB
      Poisson: 25.33 MiB
      vbar: 2.62 MiB
    Wavefunctions: 65.28 MiB
      Arrays psit_nG: 26.66 MiB
      Eigensolver: 33.00 MiB
      Projections: 0.01 MiB
      Projectors: 5.61 MiB

Total number of cores used: 1

Number of atoms: 3
Number of atomic orbitals: 53
Number of bands in calculation: 21
Bands to converge: occupied states only
Number of valence electrons: 21

... initialized

Initializing position-dependent things.

Density initialized from atomic densities
Creating initial wave functions:
  21 bands from LCAO basis set

     .---------------.  
    /|               |  
   / |               |  
  /  |               |  
 *   |               |  
 |   |               |  
 |   | N   Hf  C     |  
 |   |               |  
 |   .---------------.  
 |  /               /   
 | /               /    
 |/               /     
 *---------------*      

Positions:
   0 Hf     3.165000    3.425000    3.250000    ( 0.0000,  0.0000,  0.0000)
   1 N      1.485000    3.075000    3.250000    ( 0.0000,  0.0000,  0.0000)
   2 C      5.015000    3.075000    3.250000    ( 0.0000,  0.0000,  0.0000)

Unit cell:
           periodic     x           y           z      points  spacing
  1. axis:    no     6.500000    0.000000    0.000000    56     0.1161
  2. axis:    no     0.000000    6.500000    0.000000    56     0.1161
  3. axis:    no     0.000000    0.000000    6.500000    56     0.1161

  Lengths:   6.500000   6.500000   6.500000
  Angles:   90.000000  90.000000  90.000000

Effective grid spacing dv^(1/3) = 0.1161

                     log10-error:    total        iterations:
           time      wfs    density  energy       fermi  poisson
iter:   1  14:33:45  +3.45   +inf  -516.943867    0      13     
iter:   2  14:33:48  +3.81   +inf  -950.940545    0             
iter:   3  14:33:51  +4.09   +inf  -1266.659058    0             
iter:   4  14:34:15  +3.45  -0.00    42.084840    0      14     
iter:   5  14:34:40  +3.44  -0.15    -0.053222    0      12     
iter:   6  14:35:03  +2.76  -0.41    -2.219590    0      12     
iter:   7  14:35:25  +2.39  -0.56   -43.242991    0      13     
iter:   8  14:35:48  +1.30  -0.54   -16.458542    0      12     
iter:   9  14:36:10  +1.24  -0.69   -16.038079    0      12     
iter:  10  14:36:32  +0.79  -0.87   -17.771473    0      10     
iter:  11  14:36:53  +0.75  -0.89   -14.680223    0      10     
iter:  12  14:37:15  +0.99  -1.18   -15.539300    0      8      
iter:  13  14:37:37  +0.28  -1.26   -16.026481    0      8      
iter:  14  14:37:58  +0.13  -1.35   -16.150700    0      7      
iter:  15  14:38:19  -0.49  -1.41   -16.210795    0      7      
iter:  16  14:38:40  -0.51  -1.41   -16.221286    0      7      
iter:  17  14:39:02  -0.58  -1.50   -16.360986    0      8      
iter:  18  14:39:23  -0.91  -1.72   -16.395522    0      7      
iter:  19  14:39:44  -1.30  -1.84   -16.393003    0      6      
iter:  20  14:40:05  -1.62  -2.26   -16.400539    0      6      
iter:  21  14:40:25  -1.92  -2.50   -16.403190    0      4      
iter:  22  14:40:46  -2.43  -2.68   -16.404734    0      4      
iter:  23  14:41:06  -2.04  -2.80   -16.406583    0      5      
iter:  24  14:41:27  -2.67  -3.23   -16.407362    0      4      
iter:  25  14:41:47  -3.07  -3.37   -16.407761    0      3      
iter:  26  14:42:07  -3.31  -3.41   -16.408094    0      3      
iter:  27  14:42:27  -3.39  -3.63   -16.408245    0      3      
iter:  28  14:42:47  -3.67  -3.87   -16.408274    0      3      
iter:  29  14:43:06  -4.03  -3.96   -16.408313    0      2      
iter:  30  14:43:25  -4.27  -4.04   -16.408343    0      2      
iter:  31  14:43:44  +1.25  -4.23   -17.830745    0      2      
iter:  32  14:44:03  +0.65  -1.16   -18.204950    0      2      
iter:  33  14:44:22  -0.05  -0.95   -18.117540    0      1      
iter:  34  14:44:42  -0.44  -0.95   -17.907810    0      8      
iter:  35  14:45:03  -0.63  -1.01   -18.012572    0      8      
iter:  36  14:45:24  -0.19  -1.16   -18.328931    0      9      
iter:  37  14:45:44  -0.91  -1.63   -18.286948    0      7      
iter:  38  14:46:03  -1.12  -1.90   -18.266862    0      5      
iter:  39  14:46:24  -1.50  -2.06   -18.273647    0      6      
iter:  40  14:46:43  -1.74  -2.37   -18.283911    0      5      
iter:  41  14:47:03  -2.29  -2.63   -18.285131    0      4      
iter:  42  14:47:23  -2.68  -2.76   -18.287800    0      4      
iter:  43  14:47:42  -2.35  -2.91   -18.289639    0      4      
iter:  44  14:48:02  -2.57  -3.20   -18.290334    0      3      
iter:  45  14:48:22  -3.02  -3.30   -18.290755    0      3      
iter:  46  14:48:41  -3.28  -3.42   -18.290956    0      3      
iter:  47  14:49:00  -3.07  -3.49   -18.291222    0      3      
iter:  48  14:49:19  -3.18  -3.77   -18.291251    0      3      
iter:  49  14:49:39  -3.25  -3.93   -18.291285    0      3      
iter:  50  14:49:58  -3.37  -4.01   -18.291335    0      3      
iter:  51  14:50:17  -3.52  -4.21   -18.291354    0      2      
iter:  52  14:50:36  -3.99  -4.28   -18.291388    0      2      
iter:  53  14:50:54  -4.26  -4.39   -18.291378    0      2      
iter:  54  14:51:13  -4.93  -4.43   -18.291420    0      2      
iter:  55  14:51:32  -5.22  -4.69   -18.291477    0      1      
iter:  56  14:51:50  -5.79  -4.81   -18.291390    0      1      
iter:  57  14:52:09  -6.74  -4.81   -18.291363    0      1      
iter:  58  14:52:28  -7.50  -4.79   -18.291325    0      1      

Converged after 58 iterations.

Dipole moment: (0.165244, 0.846478, -0.000000) |e|*Ang

Energy contributions relative to reference atoms: (reference = -412395.464894)

Kinetic:        +29.688582
Potential:      -19.359177
External:        +0.000000
XC:             -28.675999
Entropy (-ST):   +0.000000
Local:           +0.055269
--------------------------
Free energy:    -18.291325
Extrapolated:   -18.291325

Fermi level: -3.75376

 Band  Eigenvalues  Occupancy
    0    -66.63732    2.00000
    1    -35.48668    2.00000
    2    -35.30771    2.00000
    3    -35.29345    2.00000
    4    -16.77960    2.00000
    5    -12.09746    2.00000
    6     -6.10214    2.00000
    7     -6.06575    2.00000
    8     -5.24451    2.00000
    9     -3.91220    2.00000
   10     -3.75376    1.00000
   11     -2.36276    0.00000
   12     -1.37695    0.00000
   13     -1.17142    0.00000
   14     -1.10847    0.00000
   15      2.73839    0.00000
   16      2.83881    0.00000
   17      3.14724    0.00000
   18      3.90285    0.00000
   19      5.94397    0.00000
   20      7.50053    0.00000

Writing to 3_27462_Pm_M06-L_R28_1536935594.gpw (mode='all')

Timing:                              incl.     excl.
-----------------------------------------------------------
Hamiltonian:                        21.107     0.000   0.0% |
 Atomic:                             2.875     0.001   0.0% |
  XC Correction:                     2.874     2.874   0.2% |
 Calculate atomic Hamiltonians:      0.010     0.010   0.0% |
 Communicate:                        0.000     0.000   0.0% |
 Hartree integrate/restrict:         0.021     0.021   0.0% |
 Initialize Hamiltonian:             0.000     0.000   0.0% |
 Poisson:                            3.084     3.084   0.3% |
 XC 3D grid:                        15.109    15.109   1.3% ||
 vbar:                               0.008     0.008   0.0% |
LCAO initialization:                 3.753     2.482   0.2% |
 LCAO eigensolver:                   0.145     0.000   0.0% |
  Calculate projections:             0.000     0.000   0.0% |
  DenseAtomicCorrection:             0.000     0.000   0.0% |
  Distribute overlap matrix:         0.000     0.000   0.0% |
  Orbital Layouts:                   0.001     0.001   0.0% |
  Potential matrix:                  0.143     0.143   0.0% |
 LCAO to grid:                       0.252     0.252   0.0% |
 Set positions (LCAO WFS):           0.874     0.000   0.0% |
  Basic WFS set positions:           0.000     0.000   0.0% |
  Basis functions set positions:     0.000     0.000   0.0% |
  TCI: Calculate S, T, P:            0.874     0.874   0.1% |
SCF-cycle:                        1127.652     0.037   0.0% |
 CG:                               136.105    37.165   3.2% ||
  Apply hamiltonian:                40.955    40.955   3.5% ||
  CG: orthonormalize:               20.087    10.596   0.9% |
   CG: overlap:                      9.278     9.278   0.8% |
   CG: overlap2:                     0.213     0.213   0.0% |
  Subspace diag:                    37.899     0.005   0.0% |
   calc_h_matrix:                   27.201     4.933   0.4% |
    Apply hamiltonian:              22.267    22.267   1.9% ||
   diagonalize:                      0.014     0.014   0.0% |
   rotate_psi:                      10.679    10.679   0.9% |
 Density:                            2.744     0.001   0.0% |
  Atomic density matrices:           0.039     0.039   0.0% |
  Mix:                               1.967     1.967   0.2% |
  Multipole moments:                 0.010     0.010   0.0% |
  Pseudo density:                    0.727     0.726   0.1% |
   Symmetrize density:               0.001     0.001   0.0% |
 Hamiltonian:                      988.615     0.007   0.0% |
  Atomic:                           92.507     0.053   0.0% |
   XC Correction:                   92.454    92.454   8.0% |--|
  Calculate atomic Hamiltonians:     0.553     0.553   0.0% |
  Communicate:                       0.000     0.000   0.0% |
  Hartree integrate/restrict:        1.071     1.071   0.1% |
  Poisson:                          69.167    69.167   6.0% |-|
  XC 3D grid:                      825.082   825.082  71.5% |----------------------------|
  vbar:                              0.227     0.227   0.0% |
 Orthonormalize:                     0.151     0.000   0.0% |
  calc_s_matrix:                     0.051     0.051   0.0% |
  inverse-cholesky:                  0.000     0.000   0.0% |
  projections:                       0.034     0.034   0.0% |
  rotate_psi_s:                      0.066     0.066   0.0% |
Set symmetry:                        0.001     0.001   0.0% |
Other:                               1.315     1.315   0.1% |
-----------------------------------------------------------
Total:                                      1153.828 100.0%

Memory usage: 540.88 MiB
Date: Fri Sep 14 14:52:28 2018
