
  ___ ___ ___ _ _ _  
 |   |   |_  | | | | 
 | | | | | . | | | | 
 |__ |  _|___|_____|  1.4.0
 |___|_|             

User:   ???@93e7e28806d8
Date:   Fri Sep 14 13:27:55 2018
Arch:   x86_64
Pid:    430
Python: 3.7.0
gpaw:   /app/gpaw/software/venv/lib/python3.7/site-packages/gpaw
_gpaw:  /app/gpaw/software/venv/lib/python3.7/site-packages/
        _gpaw.cpython-37m-x86_64-linux-gnu.so
ase:    /app/gpaw/software/venv/lib/python3.7/site-packages/ase (version 3.16.2)
numpy:  /app/gpaw/software/venv/lib/python3.7/site-packages/numpy (version 1.15.0)
scipy:  /app/gpaw/software/venv/lib/python3.7/site-packages/scipy (version 1.1.0)
units:  Angstrom and eV
cores:  1

Input parameters:
  basis: dzp
  eigensolver: cg
  gpts: [56 56 56]
  maxiter: 150
  mixer: {backend: pulay,
          beta: None,
          method: separate,
          nmaxold: None,
          weight: None}
  xc: M06-L

System changes: positions, numbers, cell, pbc, initial_charges, initial_magmoms 

Initialize ...

Hf-setup:
  name: Hafnium
  id: d03a45b6fa1dd7f07e443d1513edf499
  Z: 72
  valence: 12
  core: 60
  charge: 0.0
  file: /app/gpaw/datasets/Hf.PBE
  cutoffs: 1.30(comp), 2.36(filt), 4.02(core), lmax=2
  valence states:
                energy  radius
    5s(2.00)   -66.831   1.397
    6s(2.00)    -5.097   1.397
    5p(6.00)   -35.599   1.307
    6p(0.00)    -1.401   1.307
    5d(2.00)    -2.699   1.334
    *d          24.513   1.334

  LCAO basis set for Hf:
    Name: dzp
    File: /app/gpaw/datasets/Hf.dzp.basis
    Number of radial functions: 9
    Number of spherical harmonics: 27
      l=0, rc=3.5625 Bohr: 5s-sz confined orbital
      l=0, rc=9.5469 Bohr: 6s-sz confined orbital
      l=1, rc=4.3125 Bohr: 5p-sz confined orbital
      l=2, rc=8.5000 Bohr: 5d-sz confined orbital
      l=0, rc=2.2656 Bohr: 5s-dz split-valence wave
      l=0, rc=5.7812 Bohr: 6s-dz split-valence wave
      l=1, rc=2.6406 Bohr: 5p-dz split-valence wave
      l=2, rc=4.9844 Bohr: 5d-dz split-valence wave
      l=3, rc=8.5000 Bohr: f-type Gaussian polarization

C-setup:
  name: Carbon
  id: 2f012631b351e3618121587a96c50fca
  Z: 6
  valence: 4
  core: 2
  charge: 0.0
  file: /app/gpaw/datasets/C.PBE
  cutoffs: 0.64(comp), 1.14(filt), 1.14(core), lmax=2
  valence states:
                energy  radius
    2s(2.00)   -13.751   0.635
    2p(2.00)    -5.285   0.635
    *s          13.461   0.635
    *p          21.927   0.635
    *d           0.000   0.635

  LCAO basis set for C:
    Name: dzp
    File: /app/gpaw/datasets/C.dzp.basis
    Number of radial functions: 5
    Number of spherical harmonics: 13
      l=0, rc=5.5938 Bohr: 2s-sz confined orbital
      l=1, rc=6.8750 Bohr: 2p-sz confined orbital
      l=0, rc=3.0938 Bohr: 2s-dz split-valence wave
      l=1, rc=3.8125 Bohr: 2p-dz split-valence wave
      l=2, rc=6.8750 Bohr: d-type Gaussian polarization

N-setup:
  name: Nitrogen
  id: 45c8c9c739e7b131496b9fd2deb94bff
  Z: 7
  valence: 5
  core: 2
  charge: 0.0
  file: /app/gpaw/datasets/N.PBE
  cutoffs: 0.58(comp), 1.11(filt), 0.96(core), lmax=2
  valence states:
                energy  radius
    2s(2.00)   -18.583   0.603
    2p(3.00)    -7.089   0.529
    *s           8.629   0.603
    *p          20.123   0.529
    *d           0.000   0.577

  LCAO basis set for N:
    Name: dzp
    File: /app/gpaw/datasets/N.dzp.basis
    Number of radial functions: 5
    Number of spherical harmonics: 13
      l=0, rc=4.8594 Bohr: 2s-sz confined orbital
      l=1, rc=6.0625 Bohr: 2p-sz confined orbital
      l=0, rc=2.6094 Bohr: 2s-dz split-valence wave
      l=1, rc=3.2656 Bohr: 2p-dz split-valence wave
      l=2, rc=6.0625 Bohr: d-type Gaussian polarization

Reference energy: -412395.464894

Spin-paired calculation

Occupation numbers:
  Fermi-Dirac: width=0.0000 eV

Convergence criteria:
  Maximum total energy change: 0.0005 eV / electron
  Maximum integral of absolute density change: 0.0001 electrons
  Maximum integral of absolute eigenstate change: 4e-08 eV^2
  Maximum number of iterations: 150

Symmetries present (total): 1

  ( 1  0  0)
  ( 0  1  0)
  ( 0  0  1)

1 k-point (Gamma)
1 k-point in the irreducible part of the Brillouin zone
       k-points in crystal coordinates                weights
   0:     0.00000000    0.00000000    0.00000000          1/1

Wave functions: Uniform real-space grid
  Kinetic energy operator: 6*3+1=19 point O(h^6) finite-difference Laplacian
  ScaLapack parameters: grid=1x1, blocksize=None 

Eigensolver
   CG(niter=4, rtol=3.0e-01) 

Densities:
  Coarse grid: 56*56*56 grid
  Fine grid: 112*112*112 grid
  Total Charge: 0.000000 

Density mixing:
  Method: separate
  Backend: pulay
  Linear mixing parameter: 0.25
  Mixing with 3 old densities
  No damping of long wave oscillations 

Hamiltonian:
  XC and Coulomb potentials evaluated on a 112*112*112 grid
  Using the M06-L Exchange-Correlation functional
  Interpolation: tri-quintic (5. degree polynomial)
  Poisson solver: Jacobi solver with 5 multi-grid levels
    Coarsest grid: 7 x 7 x 7 points
    Stencil: 6*3+1=19 point O(h^6) finite-difference Laplacian
    Max iterations: 1000
    Tolerance: 2.000000e-10 

Memory estimate:
  Process memory now: 41.72 MiB
  Calculator: 198.44 MiB
    Density: 80.53 MiB
      Arrays: 33.84 MiB
      Localized functions: 39.07 MiB
      Mixer: 7.62 MiB
    Hamiltonian: 52.63 MiB
      Arrays: 22.14 MiB
      XC: 2.54 MiB
      Poisson: 25.33 MiB
      vbar: 2.62 MiB
    Wavefunctions: 65.28 MiB
      Arrays psit_nG: 26.66 MiB
      Eigensolver: 33.00 MiB
      Projections: 0.01 MiB
      Projectors: 5.61 MiB

Total number of cores used: 1

Number of atoms: 3
Number of atomic orbitals: 53
Number of bands in calculation: 21
Bands to converge: occupied states only
Number of valence electrons: 21

... initialized

Initializing position-dependent things.

Density initialized from atomic densities
Creating initial wave functions:
  21 bands from LCAO basis set

     .---------------.  
    /|               |  
   / |               |  
  /  |               |  
 *   |               |  
 |   |               |  
 |   |C    Hf  N     |  
 |   |               |  
 |   .---------------.  
 |  /               /   
 | /               /    
 |/               /     
 *---------------*      

Positions:
   0 Hf     3.220000    3.400000    3.250000    ( 0.0000,  0.0000,  0.0000)
   1 C      1.430000    3.100000    3.250000    ( 0.0000,  0.0000,  0.0000)
   2 N      5.070000    3.100000    3.250000    ( 0.0000,  0.0000,  0.0000)

Unit cell:
           periodic     x           y           z      points  spacing
  1. axis:    no     6.500000    0.000000    0.000000    56     0.1161
  2. axis:    no     0.000000    6.500000    0.000000    56     0.1161
  3. axis:    no     0.000000    0.000000    6.500000    56     0.1161

  Lengths:   6.500000   6.500000   6.500000
  Angles:   90.000000  90.000000  90.000000

Effective grid spacing dv^(1/3) = 0.1161

                     log10-error:    total        iterations:
           time      wfs    density  energy       fermi  poisson
iter:   1  13:28:25  +4.04   +inf  -829.843895    0      13     
iter:   2  13:28:27  +4.42   +inf  -1927.574628    0             
iter:   3  13:28:30  +3.98   +inf  -2893.041815    0             
iter:   4  13:28:52  +3.45  +0.08   -67.086470    0      14     
iter:   5  13:29:14  +2.99  -0.06     4.208827    0      12     
iter:   6  13:29:36  +3.15  -0.29   -48.019736    0      12     
iter:   7  13:29:58  +5.09  -0.40  -1494.842773    0      13     
iter:   8  13:30:20  +3.43  -0.27   215.339898    0      12     
iter:   9  13:30:42  +3.31  -0.31     4.671085    0      11     
iter:  10  13:31:03  +5.63  -0.34  -2343.163188    0      11     
iter:  11  13:31:25  +3.12  -0.40   170.358070    0      10     
iter:  12  13:31:46  +2.91  -0.38    34.775014    0      10     
iter:  13  13:32:07  +2.53  -0.51   -27.830103    0      9      
iter:  14  13:32:28  +4.75  -0.37  -628.625349    0      8      
iter:  15  13:32:49  +3.39  -0.25    69.728661    0      9      
iter:  16  13:33:10  +3.08  -0.48     1.208515    0      10     
iter:  17  13:33:31  +2.17  -0.51    -4.915852    0      10     
iter:  18  13:33:52  +1.78  -0.63    -7.666357    0      10     
iter:  19  13:34:13  +1.85  -0.86   -11.247066    0      9      
iter:  20  13:34:33  +2.18  -0.78   -17.995115    0      7      
iter:  21  13:34:54  +0.81  -0.76   -18.069080    0      8      
iter:  22  13:35:15  +0.00  -0.73   -17.981238    0      9      
iter:  23  13:35:35  +0.79  -0.75   -16.821164    0      9      
iter:  24  13:35:56  -0.07  -0.82   -17.337296    0      8      
iter:  25  13:36:17  +0.13  -0.91   -17.566470    0      9      
iter:  26  13:36:37  -0.11  -1.20   -17.585699    0      8      
iter:  27  13:36:58  -0.32  -1.39   -17.688562    0      7      
iter:  28  13:37:18  -0.85  -1.57   -17.725055    0      7      
iter:  29  13:37:38  -1.25  -1.78   -17.742505    0      6      
iter:  30  13:37:58  -1.34  -1.95   -17.747786    0      6      
iter:  31  13:38:18  -1.53  -2.17   -17.752116    0      5      
iter:  32  13:38:38  -1.90  -2.29   -17.754271    0      5      
iter:  33  13:38:58  -2.37  -2.45   -17.755537    0      5      
iter:  34  13:39:18  -2.53  -2.53   -17.756612    0      5      
iter:  35  13:39:38  -2.89  -2.71   -17.756500    0      4      
iter:  36  13:39:57  -2.91  -2.89   -17.756394    0      4      
iter:  37  13:40:17  -3.13  -3.03   -17.756281    0      4      
iter:  38  13:40:36  -3.70  -3.26   -17.756217    0      4      
iter:  39  13:40:55  -3.15  -3.40   -17.756038    0      4      
iter:  40  13:41:15  -4.51  -3.65   -17.756071    0      3      
iter:  41  13:41:34  -4.42  -3.68   -17.756060    0      3      
iter:  42  13:41:53  -3.99  -3.88   -17.756148    0      3      
iter:  43  13:42:12  -4.56  -4.07   -17.756224    0      2      
iter:  44  13:42:31  -5.09  -4.22   -17.756231    0      2      
iter:  45  13:42:50  -4.86  -4.33   -17.756266    0      2      
iter:  46  13:43:09  -5.33  -4.58   -17.756286    0      1      
iter:  47  13:43:28  -5.97  -4.68   -17.756255    0      2      
iter:  48  13:43:47  -6.44  -4.95   -17.756250    0      1      
iter:  49  13:44:06  -7.13  -4.97   -17.756232    0      1      
iter:  50  13:44:25  -7.64  -5.03   -17.756218    0      1      

Converged after 50 iterations.

Dipole moment: (-0.336680, 0.765830, -0.000002) |e|*Ang

Energy contributions relative to reference atoms: (reference = -412395.464894)

Kinetic:        +21.887064
Potential:      -12.325537
External:        +0.000000
XC:             -27.270231
Entropy (-ST):   +0.000000
Local:           -0.047514
--------------------------
Free energy:    -17.756218
Extrapolated:   -17.756218

Fermi level: -3.84498

 Band  Eigenvalues  Occupancy
    0    -66.89838    2.00000
    1    -35.58532    2.00000
    2    -35.54981    2.00000
    3    -35.35856    2.00000
    4    -16.68920    2.00000
    5    -12.03965    2.00000
    6     -5.67298    2.00000
    7     -5.64998    2.00000
    8     -4.94564    2.00000
    9     -3.94182    2.00000
   10     -3.84498    1.00000
   11     -2.48694    0.00000
   12     -1.37189    0.00000
   13     -1.13896    0.00000
   14     -0.25206    0.00000
   15      2.47184    0.00000
   16      2.56510    0.00000
   17      3.13317    0.00000
   18      5.55673    0.00000
   19      6.11174    0.00000
   20      8.02509    0.00000

Writing to 3_27462_Pm_M06-L_1536931675.gpw (mode='all')

Timing:                              incl.     excl.
-----------------------------------------------------------
Hamiltonian:                        20.368     0.000   0.0% |
 Atomic:                             2.742     0.001   0.0% |
  XC Correction:                     2.741     2.741   0.3% |
 Calculate atomic Hamiltonians:      0.009     0.009   0.0% |
 Communicate:                        0.000     0.000   0.0% |
 Hartree integrate/restrict:         0.017     0.017   0.0% |
 Initialize Hamiltonian:             0.000     0.000   0.0% |
 Poisson:                            2.948     2.948   0.3% |
 XC 3D grid:                        14.645    14.645   1.5% ||
 vbar:                               0.006     0.006   0.0% |
LCAO initialization:                 3.601     2.379   0.2% |
 LCAO eigensolver:                   0.141     0.000   0.0% |
  Calculate projections:             0.000     0.000   0.0% |
  DenseAtomicCorrection:             0.000     0.000   0.0% |
  Distribute overlap matrix:         0.000     0.000   0.0% |
  Orbital Layouts:                   0.001     0.001   0.0% |
  Potential matrix:                  0.139     0.139   0.0% |
 LCAO to grid:                       0.247     0.247   0.0% |
 Set positions (LCAO WFS):           0.834     0.000   0.0% |
  Basic WFS set positions:           0.000     0.000   0.0% |
  Basis functions set positions:     0.000     0.000   0.0% |
  TCI: Calculate S, T, P:            0.834     0.834   0.1% |
SCF-cycle:                         964.413     0.035   0.0% |
 CG:                               114.529    32.186   3.3% ||
  Apply hamiltonian:                35.823    35.823   3.6% ||
  CG: orthonormalize:               16.986     8.975   0.9% |
   CG: overlap:                      7.820     7.820   0.8% |
   CG: overlap2:                     0.192     0.192   0.0% |
  Subspace diag:                    29.534     0.004   0.0% |
   calc_h_matrix:                   21.424     3.607   0.4% |
    Apply hamiltonian:              17.817    17.817   1.8% ||
   diagonalize:                      0.011     0.011   0.0% |
   rotate_psi:                       8.095     8.095   0.8% |
 Density:                            2.255     0.001   0.0% |
  Atomic density matrices:           0.032     0.032   0.0% |
  Mix:                               1.641     1.641   0.2% |
  Multipole moments:                 0.008     0.008   0.0% |
  Pseudo density:                    0.573     0.573   0.1% |
   Symmetrize density:               0.001     0.001   0.0% |
 Hamiltonian:                      847.457     0.005   0.0% |
  Atomic:                           77.051     0.043   0.0% |
   XC Correction:                   77.008    77.008   7.8% |--|
  Calculate atomic Hamiltonians:     0.457     0.457   0.0% |
  Communicate:                       0.000     0.000   0.0% |
  Hartree integrate/restrict:        0.940     0.940   0.1% |
  Poisson:                          72.868    72.868   7.4% |--|
  XC 3D grid:                      695.969   695.969  70.3% |---------------------------|
  vbar:                              0.167     0.167   0.0% |
 Orthonormalize:                     0.138     0.000   0.0% |
  calc_s_matrix:                     0.047     0.047   0.0% |
  inverse-cholesky:                  0.000     0.000   0.0% |
  projections:                       0.032     0.032   0.0% |
  rotate_psi_s:                      0.057     0.057   0.0% |
Set symmetry:                        0.001     0.001   0.0% |
Other:                               1.226     1.226   0.1% |
-----------------------------------------------------------
Total:                                       989.610 100.0%

Memory usage: 540.79 MiB
Date: Fri Sep 14 13:44:25 2018
