
  ___ ___ ___ _ _ _  
 |   |   |_  | | | | 
 | | | | | . | | | | 
 |__ |  _|___|_____|  1.4.0
 |___|_|             

User:   ???@93e7e28806d8
Date:   Fri Sep 14 15:57:00 2018
Arch:   x86_64
Pid:    797
Python: 3.7.0
gpaw:   /app/gpaw/software/venv/lib/python3.7/site-packages/gpaw
_gpaw:  /app/gpaw/software/venv/lib/python3.7/site-packages/
        _gpaw.cpython-37m-x86_64-linux-gnu.so
ase:    /app/gpaw/software/venv/lib/python3.7/site-packages/ase (version 3.16.2)
numpy:  /app/gpaw/software/venv/lib/python3.7/site-packages/numpy (version 1.15.0)
scipy:  /app/gpaw/software/venv/lib/python3.7/site-packages/scipy (version 1.1.0)
units:  Angstrom and eV
cores:  1

Input parameters:
  basis: dzp
  eigensolver: cg
  gpts: [56 56 56]
  maxiter: 150
  mixer: {backend: pulay,
          beta: None,
          method: separate,
          nmaxold: None,
          weight: None}
  xc: M06-L

System changes: positions, numbers, cell, pbc, initial_charges, initial_magmoms 

Initialize ...

Hf-setup:
  name: Hafnium
  id: d03a45b6fa1dd7f07e443d1513edf499
  Z: 72
  valence: 12
  core: 60
  charge: 0.0
  file: /app/gpaw/datasets/Hf.PBE
  cutoffs: 1.30(comp), 2.36(filt), 4.02(core), lmax=2
  valence states:
                energy  radius
    5s(2.00)   -66.831   1.397
    6s(2.00)    -5.097   1.397
    5p(6.00)   -35.599   1.307
    6p(0.00)    -1.401   1.307
    5d(2.00)    -2.699   1.334
    *d          24.513   1.334

  LCAO basis set for Hf:
    Name: dzp
    File: /app/gpaw/datasets/Hf.dzp.basis
    Number of radial functions: 9
    Number of spherical harmonics: 27
      l=0, rc=3.5625 Bohr: 5s-sz confined orbital
      l=0, rc=9.5469 Bohr: 6s-sz confined orbital
      l=1, rc=4.3125 Bohr: 5p-sz confined orbital
      l=2, rc=8.5000 Bohr: 5d-sz confined orbital
      l=0, rc=2.2656 Bohr: 5s-dz split-valence wave
      l=0, rc=5.7812 Bohr: 6s-dz split-valence wave
      l=1, rc=2.6406 Bohr: 5p-dz split-valence wave
      l=2, rc=4.9844 Bohr: 5d-dz split-valence wave
      l=3, rc=8.5000 Bohr: f-type Gaussian polarization

N-setup:
  name: Nitrogen
  id: 45c8c9c739e7b131496b9fd2deb94bff
  Z: 7
  valence: 5
  core: 2
  charge: 0.0
  file: /app/gpaw/datasets/N.PBE
  cutoffs: 0.58(comp), 1.11(filt), 0.96(core), lmax=2
  valence states:
                energy  radius
    2s(2.00)   -18.583   0.603
    2p(3.00)    -7.089   0.529
    *s           8.629   0.603
    *p          20.123   0.529
    *d           0.000   0.577

  LCAO basis set for N:
    Name: dzp
    File: /app/gpaw/datasets/N.dzp.basis
    Number of radial functions: 5
    Number of spherical harmonics: 13
      l=0, rc=4.8594 Bohr: 2s-sz confined orbital
      l=1, rc=6.0625 Bohr: 2p-sz confined orbital
      l=0, rc=2.6094 Bohr: 2s-dz split-valence wave
      l=1, rc=3.2656 Bohr: 2p-dz split-valence wave
      l=2, rc=6.0625 Bohr: d-type Gaussian polarization

C-setup:
  name: Carbon
  id: 2f012631b351e3618121587a96c50fca
  Z: 6
  valence: 4
  core: 2
  charge: 0.0
  file: /app/gpaw/datasets/C.PBE
  cutoffs: 0.64(comp), 1.14(filt), 1.14(core), lmax=2
  valence states:
                energy  radius
    2s(2.00)   -13.751   0.635
    2p(2.00)    -5.285   0.635
    *s          13.461   0.635
    *p          21.927   0.635
    *d           0.000   0.635

  LCAO basis set for C:
    Name: dzp
    File: /app/gpaw/datasets/C.dzp.basis
    Number of radial functions: 5
    Number of spherical harmonics: 13
      l=0, rc=5.5938 Bohr: 2s-sz confined orbital
      l=1, rc=6.8750 Bohr: 2p-sz confined orbital
      l=0, rc=3.0938 Bohr: 2s-dz split-valence wave
      l=1, rc=3.8125 Bohr: 2p-dz split-valence wave
      l=2, rc=6.8750 Bohr: d-type Gaussian polarization

Reference energy: -412395.464894

Spin-paired calculation

Occupation numbers:
  Fermi-Dirac: width=0.0000 eV

Convergence criteria:
  Maximum total energy change: 0.0005 eV / electron
  Maximum integral of absolute density change: 0.0001 electrons
  Maximum integral of absolute eigenstate change: 4e-08 eV^2
  Maximum number of iterations: 150

Symmetries present (total): 1

  ( 1  0  0)
  ( 0  1  0)
  ( 0  0  1)

1 k-point (Gamma)
1 k-point in the irreducible part of the Brillouin zone
       k-points in crystal coordinates                weights
   0:     0.00000000    0.00000000    0.00000000          1/1

Wave functions: Uniform real-space grid
  Kinetic energy operator: 6*3+1=19 point O(h^6) finite-difference Laplacian
  ScaLapack parameters: grid=1x1, blocksize=None 

Eigensolver
   CG(niter=4, rtol=3.0e-01) 

Densities:
  Coarse grid: 56*56*56 grid
  Fine grid: 112*112*112 grid
  Total Charge: 0.000000 

Density mixing:
  Method: separate
  Backend: pulay
  Linear mixing parameter: 0.25
  Mixing with 3 old densities
  No damping of long wave oscillations 

Hamiltonian:
  XC and Coulomb potentials evaluated on a 112*112*112 grid
  Using the M06-L Exchange-Correlation functional
  Interpolation: tri-quintic (5. degree polynomial)
  Poisson solver: Jacobi solver with 5 multi-grid levels
    Coarsest grid: 7 x 7 x 7 points
    Stencil: 6*3+1=19 point O(h^6) finite-difference Laplacian
    Max iterations: 1000
    Tolerance: 2.000000e-10 

Memory estimate:
  Process memory now: 41.61 MiB
  Calculator: 198.44 MiB
    Density: 80.53 MiB
      Arrays: 33.84 MiB
      Localized functions: 39.07 MiB
      Mixer: 7.62 MiB
    Hamiltonian: 52.63 MiB
      Arrays: 22.14 MiB
      XC: 2.54 MiB
      Poisson: 25.33 MiB
      vbar: 2.62 MiB
    Wavefunctions: 65.28 MiB
      Arrays psit_nG: 26.66 MiB
      Eigensolver: 33.00 MiB
      Projections: 0.01 MiB
      Projectors: 5.61 MiB

Total number of cores used: 1

Number of atoms: 3
Number of atomic orbitals: 53
Number of bands in calculation: 21
Bands to converge: occupied states only
Number of valence electrons: 21

... initialized

Initializing position-dependent things.

Density initialized from atomic densities
Creating initial wave functions:
  21 bands from LCAO basis set

     .---------------.  
    /|               |  
   / |               |  
  /  |               |  
 *   |               |  
 |   |               |  
 |   | N   Hf  C     |  
 |   |               |  
 |   .---------------.  
 |  /               /   
 | /               /    
 |/               /     
 *---------------*      

Positions:
   0 Hf     3.165000    3.430000    3.250000    ( 0.0000,  0.0000,  0.0000)
   1 N      1.485000    3.070000    3.250000    ( 0.0000,  0.0000,  0.0000)
   2 C      5.015000    3.070000    3.250000    ( 0.0000,  0.0000,  0.0000)

Unit cell:
           periodic     x           y           z      points  spacing
  1. axis:    no     6.500000    0.000000    0.000000    56     0.1161
  2. axis:    no     0.000000    6.500000    0.000000    56     0.1161
  3. axis:    no     0.000000    0.000000    6.500000    56     0.1161

  Lengths:   6.500000   6.500000   6.500000
  Angles:   90.000000  90.000000  90.000000

Effective grid spacing dv^(1/3) = 0.1161

                     log10-error:    total        iterations:
           time      wfs    density  energy       fermi  poisson
iter:   1  15:57:31  +3.45   +inf  -516.438057    0      13     
iter:   2  15:57:33  +3.80   +inf  -927.033495    0             
iter:   3  15:57:36  +4.05   +inf  -1246.313969    0             
iter:   4  15:58:00  +3.28  -0.02    98.455650    0      14     
iter:   5  15:58:22  +3.47  -0.17    21.112412    0      12     
iter:   6  15:58:44  +2.86  -0.43     8.699823    0      12     
iter:   7  15:59:07  +2.49  -0.58   -39.922611    0      13     
iter:   8  15:59:29  +1.86  -0.44   -14.743068    0      11     
iter:   9  15:59:51  +1.41  -0.66   -15.955430    0      12     
iter:  10  16:00:13  +1.01  -0.67   -14.751575    0      10     
iter:  11  16:00:34  +1.31  -0.93   -15.667721    0      10     
iter:  12  16:00:56  +0.53  -1.23   -16.079390    0      8      
iter:  13  16:01:17  +0.18  -1.28   -16.136105    0      7      
iter:  14  16:01:38  -0.29  -1.37   -16.287115    0      7      
iter:  15  16:01:58  -0.44  -1.63   -16.355650    0      7      
iter:  16  16:02:19  -0.69  -1.91   -16.396850    0      7      
iter:  17  16:02:39  -1.04  -2.15   -16.402605    0      5      
iter:  18  16:03:00  -1.97  -2.17   -16.405824    0      5      
iter:  19  16:03:20  -2.18  -2.19   -16.409200    0      5      
iter:  20  16:03:40  -2.13  -2.50   -16.411284    0      5      
iter:  21  16:04:00  -2.53  -2.92   -16.412145    0      3      
iter:  22  16:04:20  -2.92  -2.97   -16.412339    0      3      
iter:  23  16:04:40  -3.53  -3.01   -16.412502    0      3      
iter:  24  16:05:01  -3.03  -3.08   -16.412770    0      4      
iter:  25  16:05:21  -3.23  -3.39   -16.412946    0      4      
iter:  26  16:05:41  -3.60  -3.79   -16.412960    0      2      
iter:  27  16:06:01  -4.03  -3.87   -16.413046    0      2      
iter:  28  16:06:21  -4.55  -3.95   -16.413098    0      2      
iter:  29  16:06:41  -5.21  -3.94   -16.413113    0      1      
iter:  30  16:07:01  -5.97  -3.87   -16.413008    0      1      
iter:  31  16:07:20  -5.85  -3.81   -16.413071    0      1      
iter:  32  16:07:40  -5.87  -3.79   -16.413122    0      2      
iter:  33  16:08:00  -6.07  -3.86   -16.413160    0      1      
iter:  34  16:08:21  -4.60  -3.86   -16.413147    0      2      
iter:  35  16:08:40  +1.01  -3.96   -17.819145    0      2      
iter:  36  16:08:59  +0.48  -1.17   -18.231177    0      2      
iter:  37  16:09:19  -0.08  -0.95   -18.138584    0      2      
iter:  38  16:09:41  -0.66  -0.95   -17.928113    0      8      
iter:  39  16:10:03  -0.53  -1.01   -18.041605    0      8      
iter:  40  16:10:24  -0.08  -1.15   -18.377266    0      9      
iter:  41  16:10:46  -0.97  -1.58   -18.334843    0      7      
iter:  42  16:11:06  -1.10  -1.88   -18.300938    0      5      
iter:  43  16:11:27  -1.67  -2.05   -18.295504    0      6      
iter:  44  16:11:48  -1.70  -2.32   -18.308059    0      6      
iter:  45  16:12:08  -2.01  -2.79   -18.311978    0      5      
iter:  46  16:12:29  -2.51  -2.99   -18.313060    0      4      
iter:  47  16:12:50  -2.96  -3.07   -18.314170    0      4      
iter:  48  16:13:10  -2.87  -3.18   -18.315202    0      4      
iter:  49  16:13:30  -2.97  -3.40   -18.315691    0      3      
iter:  50  16:13:50  -3.05  -3.50   -18.315914    0      3      
iter:  51  16:14:10  -2.99  -3.62   -18.316094    0      3      
iter:  52  16:14:30  -3.06  -3.84   -18.316111    0      3      
iter:  53  16:14:50  -3.57  -3.92   -18.316221    0      3      
iter:  54  16:15:10  -3.84  -4.24   -18.316231    0      2      
iter:  55  16:15:30  -4.45  -4.20   -18.316241    0      2      
iter:  56  16:15:50  -5.04  -4.20   -18.316254    0      1      
iter:  57  16:16:10  -5.42  -4.08   -18.316050    0      1      
iter:  58  16:16:31  -5.68  -4.05   -18.316282    0      2      
iter:  59  16:16:50  -4.32  -4.24   -18.316337    0      2      
iter:  60  16:17:10  -4.83  -4.73   -18.316108    0      1      
iter:  61  16:17:29  -5.53  -4.77   -18.316171    0      1      
iter:  62  16:17:49  -6.02  -4.83   -18.316212    0      1      
iter:  63  16:18:09  -6.35  -4.96   -18.316226    0      1      
iter:  64  16:18:28  -6.28  -5.24   -18.316232    0      1      
iter:  65  16:18:48  -6.61  -5.57   -18.316205    0      1      
iter:  66  16:19:08  -7.21  -5.50   -18.316199    0      1      
iter:  67  16:19:28  -7.83  -5.34   -18.316202    0      1      

Converged after 67 iterations.

Dipole moment: (0.168985, 0.859193, 0.000000) |e|*Ang

Energy contributions relative to reference atoms: (reference = -412395.464894)

Kinetic:        +29.270791
Potential:      -19.026341
External:        +0.000000
XC:             -28.613721
Entropy (-ST):   +0.000000
Local:           +0.053069
--------------------------
Free energy:    -18.316202
Extrapolated:   -18.316202

Fermi level: -3.74556

 Band  Eigenvalues  Occupancy
    0    -66.62893    2.00000
    1    -35.47198    2.00000
    2    -35.29619    2.00000
    3    -35.28570    2.00000
    4    -16.77063    2.00000
    5    -12.10602    2.00000
    6     -6.08480    2.00000
    7     -6.04175    2.00000
    8     -5.24929    2.00000
    9     -3.91616    2.00000
   10     -3.74556    1.00000
   11     -2.35329    0.00000
   12     -1.36204    0.00000
   13     -1.19252    0.00000
   14     -1.10661    0.00000
   15      2.73203    0.00000
   16      2.81605    0.00000
   17      2.89263    0.00000
   18      3.27902    0.00000
   19      5.92363    0.00000
   20      6.99336    0.00000

Writing to 3_27462_Pm_M06-L_R32_1536940620.gpw (mode='all')

Timing:                              incl.     excl.
-----------------------------------------------------------
Hamiltonian:                        21.131     0.000   0.0% |
 Atomic:                             2.869     0.001   0.0% |
  XC Correction:                     2.868     2.868   0.2% |
 Calculate atomic Hamiltonians:      0.010     0.010   0.0% |
 Communicate:                        0.000     0.000   0.0% |
 Hartree integrate/restrict:         0.017     0.017   0.0% |
 Initialize Hamiltonian:             0.000     0.000   0.0% |
 Poisson:                            3.185     3.185   0.2% |
 XC 3D grid:                        15.043    15.043   1.1% |
 vbar:                               0.007     0.007   0.0% |
LCAO initialization:                 3.686     2.446   0.2% |
 LCAO eigensolver:                   0.144     0.000   0.0% |
  Calculate projections:             0.000     0.000   0.0% |
  DenseAtomicCorrection:             0.000     0.000   0.0% |
  Distribute overlap matrix:         0.000     0.000   0.0% |
  Orbital Layouts:                   0.001     0.001   0.0% |
  Potential matrix:                  0.142     0.142   0.0% |
 LCAO to grid:                       0.250     0.250   0.0% |
 Set positions (LCAO WFS):           0.846     0.000   0.0% |
  Basic WFS set positions:           0.000     0.000   0.0% |
  Basis functions set positions:     0.000     0.000   0.0% |
  TCI: Calculate S, T, P:            0.846     0.846   0.1% |
SCF-cycle:                        1321.178     0.045   0.0% |
 CG:                               160.368    43.243   3.2% ||
  Apply hamiltonian:                47.232    47.232   3.5% ||
  CG: orthonormalize:               24.154    12.701   0.9% |
   CG: overlap:                     11.214    11.214   0.8% |
   CG: overlap2:                     0.239     0.239   0.0% |
  Subspace diag:                    45.739     0.006   0.0% |
   calc_h_matrix:                   32.459     6.367   0.5% |
    Apply hamiltonian:              26.092    26.092   1.9% ||
   diagonalize:                      0.016     0.016   0.0% |
   rotate_psi:                      13.259    13.259   1.0% |
 Density:                            3.306     0.001   0.0% |
  Atomic density matrices:           0.045     0.045   0.0% |
  Mix:                               2.390     2.390   0.2% |
  Multipole moments:                 0.012     0.012   0.0% |
  Pseudo density:                    0.858     0.857   0.1% |
   Symmetrize density:               0.001     0.001   0.0% |
 Hamiltonian:                     1157.335     0.008   0.0% |
  Atomic:                          109.277     0.062   0.0% |
   XC Correction:                  109.215   109.215   8.1% |--|
  Calculate atomic Hamiltonians:     0.643     0.643   0.0% |
  Communicate:                       0.001     0.001   0.0% |
  Hartree integrate/restrict:        1.376     1.376   0.1% |
  Poisson:                          68.916    68.916   5.1% |-|
  XC 3D grid:                      976.832   976.832  72.5% |----------------------------|
  vbar:                              0.284     0.284   0.0% |
 Orthonormalize:                     0.124     0.000   0.0% |
  calc_s_matrix:                     0.041     0.041   0.0% |
  inverse-cholesky:                  0.000     0.000   0.0% |
  projections:                       0.032     0.032   0.0% |
  rotate_psi_s:                      0.051     0.051   0.0% |
Set symmetry:                        0.001     0.001   0.0% |
Other:                               1.324     1.324   0.1% |
-----------------------------------------------------------
Total:                                      1347.321 100.0%

Memory usage: 540.95 MiB
Date: Fri Sep 14 16:19:28 2018
