
  ___ ___ ___ _ _ _  
 |   |   |_  | | | | 
 | | | | | . | | | | 
 |__ |  _|___|_____|  1.4.0
 |___|_|             

User:   ???@93e7e28806d8
Date:   Fri Sep 14 15:53:41 2018
Arch:   x86_64
Pid:    769
Python: 3.7.0
gpaw:   /app/gpaw/software/venv/lib/python3.7/site-packages/gpaw
_gpaw:  /app/gpaw/software/venv/lib/python3.7/site-packages/
        _gpaw.cpython-37m-x86_64-linux-gnu.so
ase:    /app/gpaw/software/venv/lib/python3.7/site-packages/ase (version 3.16.2)
numpy:  /app/gpaw/software/venv/lib/python3.7/site-packages/numpy (version 1.15.0)
scipy:  /app/gpaw/software/venv/lib/python3.7/site-packages/scipy (version 1.1.0)
units:  Angstrom and eV
cores:  1

Input parameters:
  basis: dzp
  eigensolver: cg
  gpts: [56 56 56]
  maxiter: 150
  mixer: {backend: pulay,
          beta: None,
          method: separate,
          nmaxold: None,
          weight: None}
  xc: M06-L

System changes: positions, numbers, cell, pbc, initial_charges, initial_magmoms 

Initialize ...

Hf-setup:
  name: Hafnium
  id: d03a45b6fa1dd7f07e443d1513edf499
  Z: 72
  valence: 12
  core: 60
  charge: 0.0
  file: /app/gpaw/datasets/Hf.PBE
  cutoffs: 1.30(comp), 2.36(filt), 4.02(core), lmax=2
  valence states:
                energy  radius
    5s(2.00)   -66.831   1.397
    6s(2.00)    -5.097   1.397
    5p(6.00)   -35.599   1.307
    6p(0.00)    -1.401   1.307
    5d(2.00)    -2.699   1.334
    *d          24.513   1.334

  LCAO basis set for Hf:
    Name: dzp
    File: /app/gpaw/datasets/Hf.dzp.basis
    Number of radial functions: 9
    Number of spherical harmonics: 27
      l=0, rc=3.5625 Bohr: 5s-sz confined orbital
      l=0, rc=9.5469 Bohr: 6s-sz confined orbital
      l=1, rc=4.3125 Bohr: 5p-sz confined orbital
      l=2, rc=8.5000 Bohr: 5d-sz confined orbital
      l=0, rc=2.2656 Bohr: 5s-dz split-valence wave
      l=0, rc=5.7812 Bohr: 6s-dz split-valence wave
      l=1, rc=2.6406 Bohr: 5p-dz split-valence wave
      l=2, rc=4.9844 Bohr: 5d-dz split-valence wave
      l=3, rc=8.5000 Bohr: f-type Gaussian polarization

N-setup:
  name: Nitrogen
  id: 45c8c9c739e7b131496b9fd2deb94bff
  Z: 7
  valence: 5
  core: 2
  charge: 0.0
  file: /app/gpaw/datasets/N.PBE
  cutoffs: 0.58(comp), 1.11(filt), 0.96(core), lmax=2
  valence states:
                energy  radius
    2s(2.00)   -18.583   0.603
    2p(3.00)    -7.089   0.529
    *s           8.629   0.603
    *p          20.123   0.529
    *d           0.000   0.577

  LCAO basis set for N:
    Name: dzp
    File: /app/gpaw/datasets/N.dzp.basis
    Number of radial functions: 5
    Number of spherical harmonics: 13
      l=0, rc=4.8594 Bohr: 2s-sz confined orbital
      l=1, rc=6.0625 Bohr: 2p-sz confined orbital
      l=0, rc=2.6094 Bohr: 2s-dz split-valence wave
      l=1, rc=3.2656 Bohr: 2p-dz split-valence wave
      l=2, rc=6.0625 Bohr: d-type Gaussian polarization

C-setup:
  name: Carbon
  id: 2f012631b351e3618121587a96c50fca
  Z: 6
  valence: 4
  core: 2
  charge: 0.0
  file: /app/gpaw/datasets/C.PBE
  cutoffs: 0.64(comp), 1.14(filt), 1.14(core), lmax=2
  valence states:
                energy  radius
    2s(2.00)   -13.751   0.635
    2p(2.00)    -5.285   0.635
    *s          13.461   0.635
    *p          21.927   0.635
    *d           0.000   0.635

  LCAO basis set for C:
    Name: dzp
    File: /app/gpaw/datasets/C.dzp.basis
    Number of radial functions: 5
    Number of spherical harmonics: 13
      l=0, rc=5.5938 Bohr: 2s-sz confined orbital
      l=1, rc=6.8750 Bohr: 2p-sz confined orbital
      l=0, rc=3.0938 Bohr: 2s-dz split-valence wave
      l=1, rc=3.8125 Bohr: 2p-dz split-valence wave
      l=2, rc=6.8750 Bohr: d-type Gaussian polarization

Reference energy: -412395.464894

Spin-paired calculation

Occupation numbers:
  Fermi-Dirac: width=0.0000 eV

Convergence criteria:
  Maximum total energy change: 0.0005 eV / electron
  Maximum integral of absolute density change: 0.0001 electrons
  Maximum integral of absolute eigenstate change: 4e-08 eV^2
  Maximum number of iterations: 150

Symmetries present (total): 1

  ( 1  0  0)
  ( 0  1  0)
  ( 0  0  1)

1 k-point (Gamma)
1 k-point in the irreducible part of the Brillouin zone
       k-points in crystal coordinates                weights
   0:     0.00000000    0.00000000    0.00000000          1/1

Wave functions: Uniform real-space grid
  Kinetic energy operator: 6*3+1=19 point O(h^6) finite-difference Laplacian
  ScaLapack parameters: grid=1x1, blocksize=None 

Eigensolver
   CG(niter=4, rtol=3.0e-01) 

Densities:
  Coarse grid: 56*56*56 grid
  Fine grid: 112*112*112 grid
  Total Charge: 0.000000 

Density mixing:
  Method: separate
  Backend: pulay
  Linear mixing parameter: 0.25
  Mixing with 3 old densities
  No damping of long wave oscillations 

Hamiltonian:
  XC and Coulomb potentials evaluated on a 112*112*112 grid
  Using the M06-L Exchange-Correlation functional
  Interpolation: tri-quintic (5. degree polynomial)
  Poisson solver: Jacobi solver with 5 multi-grid levels
    Coarsest grid: 7 x 7 x 7 points
    Stencil: 6*3+1=19 point O(h^6) finite-difference Laplacian
    Max iterations: 1000
    Tolerance: 2.000000e-10 

Memory estimate:
  Process memory now: 41.61 MiB
  Calculator: 198.44 MiB
    Density: 80.53 MiB
      Arrays: 33.84 MiB
      Localized functions: 39.07 MiB
      Mixer: 7.62 MiB
    Hamiltonian: 52.63 MiB
      Arrays: 22.14 MiB
      XC: 2.54 MiB
      Poisson: 25.33 MiB
      vbar: 2.62 MiB
    Wavefunctions: 65.28 MiB
      Arrays psit_nG: 26.66 MiB
      Eigensolver: 33.00 MiB
      Projections: 0.01 MiB
      Projectors: 5.61 MiB

Total number of cores used: 1

Number of atoms: 3
Number of atomic orbitals: 53
Number of bands in calculation: 21
Bands to converge: occupied states only
Number of valence electrons: 21

... initialized

Initializing position-dependent things.

Density initialized from atomic densities
Creating initial wave functions:
  21 bands from LCAO basis set

     .---------------.  
    /|               |  
   / |               |  
  /  |               |  
 *   |               |  
 |   |               |  
 |   | N   Hf  C     |  
 |   |               |  
 |   .---------------.  
 |  /               /   
 | /               /    
 |/               /     
 *---------------*      

Positions:
   0 Hf     3.145000    3.425000    3.250000    ( 0.0000,  0.0000,  0.0000)
   1 N      1.505000    3.075000    3.250000    ( 0.0000,  0.0000,  0.0000)
   2 C      4.995000    3.075000    3.250000    ( 0.0000,  0.0000,  0.0000)

Unit cell:
           periodic     x           y           z      points  spacing
  1. axis:    no     6.500000    0.000000    0.000000    56     0.1161
  2. axis:    no     0.000000    6.500000    0.000000    56     0.1161
  3. axis:    no     0.000000    0.000000    6.500000    56     0.1161

  Lengths:   6.500000   6.500000   6.500000
  Angles:   90.000000  90.000000  90.000000

Effective grid spacing dv^(1/3) = 0.1161

                     log10-error:    total        iterations:
           time      wfs    density  energy       fermi  poisson
iter:   1  15:54:19  +3.40   +inf  -513.304272    0      13     
iter:   2  15:54:22  +3.86   +inf  -1005.965861    0             
iter:   3  15:54:25  +4.03   +inf  -1375.326999    0             
iter:   4  15:54:49  +3.48  +0.01    27.405475    0      14     
iter:   5  15:55:11  +3.28  -0.17    30.009773    0      12     
iter:   6  15:55:34  +2.90  -0.36    -0.007813    0      12     
iter:   7  15:55:56  +2.58  -0.51   -55.617747    0      13     
iter:   8  15:56:18  +5.60  -0.35  -1687.313720    0      10     
iter:   9  15:56:40  +3.60  -0.40   321.523582    0      11     
iter:  10  15:57:02  +3.38  -0.16    79.385151    0      10     
iter:  11  15:57:24  +3.06  -0.60   -11.194313    0      10     
iter:  12  15:57:45  +2.84  -0.47   -32.496764    0      9      
iter:  13  15:58:06  +1.93  -0.47   -35.284370    0      8      
iter:  14  15:58:27  +1.22  -0.45   -41.068408    0      10     
iter:  15  15:58:49  +4.81  -0.44  -641.714775    0      10     
iter:  16  15:59:11  +2.34  -0.40    84.254486    0      10     
iter:  17  15:59:33  +3.04  -0.39    70.377132    0      10     
iter:  18  15:59:54  +2.63  -0.62    17.484216    0      9      
iter:  19  16:00:16  +2.40  -0.73    -4.903970    0      9      
iter:  20  16:00:38  +2.01  -0.55   -22.721119    0      9      
iter:  21  16:00:59  +1.57  -0.50   -24.389524    0      9      
iter:  22  16:01:21  +0.99  -0.50   -17.289405    0      10     
iter:  23  16:01:43  +1.12  -0.61   -14.596092    0      10     
iter:  24  16:02:05  +0.72  -0.89   -15.620093    0      9      
iter:  25  16:02:26  +0.56  -1.11   -16.533395    0      9      
iter:  26  16:02:47  +0.38  -1.25   -17.116270    0      7      
iter:  27  16:03:09  +0.13  -1.30   -17.334297    0      7      
iter:  28  16:03:30  -0.14  -1.35   -17.536874    0      7      
iter:  29  16:03:51  -0.07  -1.47   -17.736334    0      8      
iter:  30  16:04:12  -0.32  -1.59   -17.884465    0      7      
iter:  31  16:04:33  -0.47  -1.79   -18.039694    0      6      
iter:  32  16:04:53  -0.78  -1.80   -18.111661    0      5      
iter:  33  16:05:14  -1.18  -1.74   -18.085327    0      6      
iter:  34  16:05:35  -1.00  -1.61   -18.187465    0      7      
iter:  35  16:05:57  -1.25  -1.82   -18.227379    0      7      
iter:  36  16:06:18  -1.47  -2.12   -18.238086    0      6      
iter:  37  16:06:39  -1.90  -2.32   -18.243471    0      5      
iter:  38  16:07:00  -2.26  -2.55   -18.246443    0      5      
iter:  39  16:07:21  -2.57  -2.68   -18.248144    0      4      
iter:  40  16:07:41  -2.75  -2.81   -18.249372    0      4      
iter:  41  16:08:02  -2.82  -2.99   -18.250178    0      4      
iter:  42  16:08:22  -3.06  -3.21   -18.250419    0      3      
iter:  43  16:08:43  -3.39  -3.35   -18.250654    0      4      
iter:  44  16:09:03  -3.62  -3.61   -18.250701    0      3      
iter:  45  16:09:23  -4.14  -3.76   -18.250757    0      3      
iter:  46  16:09:43  -4.39  -3.86   -18.250743    0      2      
iter:  47  16:10:03  -4.77  -3.98   -18.250811    0      2      
iter:  48  16:10:24  -4.95  -3.98   -18.250794    0      2      
iter:  49  16:10:43  -4.69  -4.20   -18.250815    0      2      
iter:  50  16:11:03  -4.73  -4.47   -18.250845    0      2      
iter:  51  16:11:23  -4.99  -4.63   -18.250847    0      1      
iter:  52  16:11:42  -5.56  -4.57   -18.250841    0      1      
iter:  53  16:12:01  -6.15  -4.55   -18.250855    0      1      
iter:  54  16:12:21  -5.26  -4.39   -18.250844    0      2      
iter:  55  16:12:41  -5.89  -5.17   -18.250847    0      1      
iter:  56  16:13:01  -6.13  -4.82   -18.250816    0      1      
iter:  57  16:13:21  -6.35  -5.16   -18.250835    0      1      
iter:  58  16:13:40  -6.21  -5.10   -18.250804    0      1      
iter:  59  16:14:01  -6.74  -5.30   -18.250852    0      1      
iter:  60  16:14:20  -7.37  -5.53   -18.250848    0      1      
iter:  61  16:14:40  -7.76  -5.68   -18.250855    0      1      

Converged after 61 iterations.

Dipole moment: (0.114769, 0.847201, -0.000000) |e|*Ang

Energy contributions relative to reference atoms: (reference = -412395.464894)

Kinetic:        +34.070442
Potential:      -23.043005
External:        +0.000000
XC:             -29.376878
Entropy (-ST):   +0.000000
Local:           +0.098585
--------------------------
Free energy:    -18.250855
Extrapolated:   -18.250855

Fermi level: -3.74527

 Band  Eigenvalues  Occupancy
    0    -66.57121    2.00000
    1    -35.59380    2.00000
    2    -35.24362    2.00000
    3    -35.21927    2.00000
    4    -16.79925    2.00000
    5    -12.07901    2.00000
    6     -6.29182    2.00000
    7     -6.24742    2.00000
    8     -5.32635    2.00000
    9     -3.90612    2.00000
   10     -3.74527    1.00000
   11     -2.31316    0.00000
   12     -1.32084    0.00000
   13     -1.09559    0.00000
   14     -1.01850    0.00000
   15      2.75897    0.00000
   16      3.10899    0.00000
   17      4.15782    0.00000
   18      6.65087    0.00000
   19      6.66804    0.00000
   20      8.23444    0.00000

Writing to 3_27462_Pm_M06-L_R31_1536940421.gpw (mode='all')

Timing:                              incl.     excl.
-----------------------------------------------------------
Hamiltonian:                        28.394     0.000   0.0% |
 Atomic:                             3.378     0.001   0.0% |
  XC Correction:                     3.377     3.377   0.3% |
 Calculate atomic Hamiltonians:      0.017     0.017   0.0% |
 Communicate:                        0.000     0.000   0.0% |
 Hartree integrate/restrict:         0.034     0.034   0.0% |
 Initialize Hamiltonian:             0.000     0.000   0.0% |
 Poisson:                            5.561     5.561   0.4% |
 XC 3D grid:                        19.388    19.388   1.5% ||
 vbar:                               0.015     0.015   0.0% |
LCAO initialization:                 3.680     2.439   0.2% |
 LCAO eigensolver:                   0.145     0.000   0.0% |
  Calculate projections:             0.000     0.000   0.0% |
  DenseAtomicCorrection:             0.000     0.000   0.0% |
  Distribute overlap matrix:         0.000     0.000   0.0% |
  Orbital Layouts:                   0.001     0.001   0.0% |
  Potential matrix:                  0.143     0.143   0.0% |
 LCAO to grid:                       0.250     0.250   0.0% |
 Set positions (LCAO WFS):           0.846     0.000   0.0% |
  Basic WFS set positions:           0.000     0.000   0.0% |
  Basis functions set positions:     0.000     0.000   0.0% |
  TCI: Calculate S, T, P:            0.846     0.846   0.1% |
SCF-cycle:                        1224.956     0.041   0.0% |
 CG:                               150.606    41.391   3.3% ||
  Apply hamiltonian:                45.887    45.887   3.6% ||
  CG: orthonormalize:               23.046    12.101   1.0% |
   CG: overlap:                     10.709    10.709   0.9% |
   CG: overlap2:                     0.236     0.236   0.0% |
  Subspace diag:                    40.282     0.005   0.0% |
   calc_h_matrix:                   28.907     5.532   0.4% |
    Apply hamiltonian:              23.375    23.375   1.9% ||
   diagonalize:                      0.015     0.015   0.0% |
   rotate_psi:                      11.356    11.356   0.9% |
 Density:                            2.957     0.001   0.0% |
  Atomic density matrices:           0.041     0.041   0.0% |
  Mix:                               2.136     2.136   0.2% |
  Multipole moments:                 0.011     0.011   0.0% |
  Pseudo density:                    0.768     0.767   0.1% |
   Symmetrize density:               0.001     0.001   0.0% |
 Hamiltonian:                     1071.221     0.007   0.0% |
  Atomic:                           98.849     0.055   0.0% |
   XC Correction:                   98.794    98.794   7.8% |--|
  Calculate atomic Hamiltonians:     0.583     0.583   0.0% |
  Communicate:                       0.000     0.000   0.0% |
  Hartree integrate/restrict:        1.192     1.192   0.1% |
  Poisson:                          84.915    84.915   6.7% |--|
  XC 3D grid:                      885.431   885.431  70.3% |---------------------------|
  vbar:                              0.244     0.244   0.0% |
 Orthonormalize:                     0.131     0.000   0.0% |
  calc_s_matrix:                     0.042     0.042   0.0% |
  inverse-cholesky:                  0.000     0.000   0.0% |
  projections:                       0.032     0.032   0.0% |
  rotate_psi_s:                      0.056     0.056   0.0% |
Set symmetry:                        0.002     0.002   0.0% |
Other:                               2.077     2.077   0.2% |
-----------------------------------------------------------
Total:                                      1259.108 100.0%

Memory usage: 540.84 MiB
Date: Fri Sep 14 16:14:40 2018
