
  ___ ___ ___ _ _ _  
 |   |   |_  | | | | 
 | | | | | . | | | | 
 |__ |  _|___|_____|  1.4.0
 |___|_|             

User:   ???@93e7e28806d8
Date:   Fri Sep 14 16:38:57 2018
Arch:   x86_64
Pid:    1528
Python: 3.7.0
gpaw:   /app/gpaw/software/venv/lib/python3.7/site-packages/gpaw
_gpaw:  /app/gpaw/software/venv/lib/python3.7/site-packages/
        _gpaw.cpython-37m-x86_64-linux-gnu.so
ase:    /app/gpaw/software/venv/lib/python3.7/site-packages/ase (version 3.16.2)
numpy:  /app/gpaw/software/venv/lib/python3.7/site-packages/numpy (version 1.15.0)
scipy:  /app/gpaw/software/venv/lib/python3.7/site-packages/scipy (version 1.1.0)
units:  Angstrom and eV
cores:  1

Input parameters:
  basis: dzp
  eigensolver: cg
  gpts: [56 56 56]
  maxiter: 150
  mixer: {backend: pulay,
          beta: None,
          method: separate,
          nmaxold: None,
          weight: None}
  xc: M06-L

System changes: positions, numbers, cell, pbc, initial_charges, initial_magmoms 

Initialize ...

Hf-setup:
  name: Hafnium
  id: d03a45b6fa1dd7f07e443d1513edf499
  Z: 72
  valence: 12
  core: 60
  charge: 0.0
  file: /app/gpaw/datasets/Hf.PBE
  cutoffs: 1.30(comp), 2.36(filt), 4.02(core), lmax=2
  valence states:
                energy  radius
    5s(2.00)   -66.831   1.397
    6s(2.00)    -5.097   1.397
    5p(6.00)   -35.599   1.307
    6p(0.00)    -1.401   1.307
    5d(2.00)    -2.699   1.334
    *d          24.513   1.334

  LCAO basis set for Hf:
    Name: dzp
    File: /app/gpaw/datasets/Hf.dzp.basis
    Number of radial functions: 9
    Number of spherical harmonics: 27
      l=0, rc=3.5625 Bohr: 5s-sz confined orbital
      l=0, rc=9.5469 Bohr: 6s-sz confined orbital
      l=1, rc=4.3125 Bohr: 5p-sz confined orbital
      l=2, rc=8.5000 Bohr: 5d-sz confined orbital
      l=0, rc=2.2656 Bohr: 5s-dz split-valence wave
      l=0, rc=5.7812 Bohr: 6s-dz split-valence wave
      l=1, rc=2.6406 Bohr: 5p-dz split-valence wave
      l=2, rc=4.9844 Bohr: 5d-dz split-valence wave
      l=3, rc=8.5000 Bohr: f-type Gaussian polarization

N-setup:
  name: Nitrogen
  id: 45c8c9c739e7b131496b9fd2deb94bff
  Z: 7
  valence: 5
  core: 2
  charge: 0.0
  file: /app/gpaw/datasets/N.PBE
  cutoffs: 0.58(comp), 1.11(filt), 0.96(core), lmax=2
  valence states:
                energy  radius
    2s(2.00)   -18.583   0.603
    2p(3.00)    -7.089   0.529
    *s           8.629   0.603
    *p          20.123   0.529
    *d           0.000   0.577

  LCAO basis set for N:
    Name: dzp
    File: /app/gpaw/datasets/N.dzp.basis
    Number of radial functions: 5
    Number of spherical harmonics: 13
      l=0, rc=4.8594 Bohr: 2s-sz confined orbital
      l=1, rc=6.0625 Bohr: 2p-sz confined orbital
      l=0, rc=2.6094 Bohr: 2s-dz split-valence wave
      l=1, rc=3.2656 Bohr: 2p-dz split-valence wave
      l=2, rc=6.0625 Bohr: d-type Gaussian polarization

C-setup:
  name: Carbon
  id: 2f012631b351e3618121587a96c50fca
  Z: 6
  valence: 4
  core: 2
  charge: 0.0
  file: /app/gpaw/datasets/C.PBE
  cutoffs: 0.64(comp), 1.14(filt), 1.14(core), lmax=2
  valence states:
                energy  radius
    2s(2.00)   -13.751   0.635
    2p(2.00)    -5.285   0.635
    *s          13.461   0.635
    *p          21.927   0.635
    *d           0.000   0.635

  LCAO basis set for C:
    Name: dzp
    File: /app/gpaw/datasets/C.dzp.basis
    Number of radial functions: 5
    Number of spherical harmonics: 13
      l=0, rc=5.5938 Bohr: 2s-sz confined orbital
      l=1, rc=6.8750 Bohr: 2p-sz confined orbital
      l=0, rc=3.0938 Bohr: 2s-dz split-valence wave
      l=1, rc=3.8125 Bohr: 2p-dz split-valence wave
      l=2, rc=6.8750 Bohr: d-type Gaussian polarization

Reference energy: -412395.464894

Spin-paired calculation

Occupation numbers:
  Fermi-Dirac: width=0.0000 eV

Convergence criteria:
  Maximum total energy change: 0.0005 eV / electron
  Maximum integral of absolute density change: 0.0001 electrons
  Maximum integral of absolute eigenstate change: 4e-08 eV^2
  Maximum number of iterations: 150

Symmetries present (total): 1

  ( 1  0  0)
  ( 0  1  0)
  ( 0  0  1)

1 k-point (Gamma)
1 k-point in the irreducible part of the Brillouin zone
       k-points in crystal coordinates                weights
   0:     0.00000000    0.00000000    0.00000000          1/1

Wave functions: Uniform real-space grid
  Kinetic energy operator: 6*3+1=19 point O(h^6) finite-difference Laplacian
  ScaLapack parameters: grid=1x1, blocksize=None 

Eigensolver
   CG(niter=4, rtol=3.0e-01) 

Densities:
  Coarse grid: 56*56*56 grid
  Fine grid: 112*112*112 grid
  Total Charge: 0.000000 

Density mixing:
  Method: separate
  Backend: pulay
  Linear mixing parameter: 0.25
  Mixing with 3 old densities
  No damping of long wave oscillations 

Hamiltonian:
  XC and Coulomb potentials evaluated on a 112*112*112 grid
  Using the M06-L Exchange-Correlation functional
  Interpolation: tri-quintic (5. degree polynomial)
  Poisson solver: Jacobi solver with 5 multi-grid levels
    Coarsest grid: 7 x 7 x 7 points
    Stencil: 6*3+1=19 point O(h^6) finite-difference Laplacian
    Max iterations: 1000
    Tolerance: 2.000000e-10 

Memory estimate:
  Process memory now: 41.62 MiB
  Calculator: 198.44 MiB
    Density: 80.53 MiB
      Arrays: 33.84 MiB
      Localized functions: 39.07 MiB
      Mixer: 7.62 MiB
    Hamiltonian: 52.63 MiB
      Arrays: 22.14 MiB
      XC: 2.54 MiB
      Poisson: 25.33 MiB
      vbar: 2.62 MiB
    Wavefunctions: 65.28 MiB
      Arrays psit_nG: 26.66 MiB
      Eigensolver: 33.00 MiB
      Projections: 0.01 MiB
      Projectors: 5.61 MiB

Total number of cores used: 1

Number of atoms: 3
Number of atomic orbitals: 53
Number of bands in calculation: 21
Bands to converge: occupied states only
Number of valence electrons: 21

... initialized

Initializing position-dependent things.

Density initialized from atomic densities
Creating initial wave functions:
  21 bands from LCAO basis set

     .---------------.  
    /|               |  
   / |               |  
  /  |               |  
 *   |               |  
 |   |               |  
 |   | N   Hf  C     |  
 |   |               |  
 |   .---------------.  
 |  /               /   
 | /               /    
 |/               /     
 *---------------*      

Positions:
   0 Hf     3.165000    3.450000    3.250000    ( 0.0000,  0.0000,  0.0000)
   1 N      1.485000    3.050000    3.250000    ( 0.0000,  0.0000,  0.0000)
   2 C      5.015000    3.050000    3.250000    ( 0.0000,  0.0000,  0.0000)

Unit cell:
           periodic     x           y           z      points  spacing
  1. axis:    no     6.500000    0.000000    0.000000    56     0.1161
  2. axis:    no     0.000000    6.500000    0.000000    56     0.1161
  3. axis:    no     0.000000    0.000000    6.500000    56     0.1161

  Lengths:   6.500000   6.500000   6.500000
  Angles:   90.000000  90.000000  90.000000

Effective grid spacing dv^(1/3) = 0.1161

                     log10-error:    total        iterations:
           time      wfs    density  energy       fermi  poisson
iter:   1  16:39:26  +3.44   +inf  -516.636811    0      13     
iter:   2  16:39:29  +3.92   +inf  -912.959995    0             
iter:   3  16:39:31  +3.82   +inf  -1177.327151    0             
iter:   4  16:39:54  +3.12  -0.01    -2.728560    0      14     
iter:   5  16:40:16  +3.20  -0.16    20.096990    0      12     
iter:   6  16:40:39  +3.08  -0.39    -2.506355    0      12     
iter:   7  16:41:01  +2.44  -0.46  -124.886336    0      13     
iter:   8  16:41:23  +1.98  -0.31   -53.393167    0      10     
iter:   9  16:41:46  +2.07  -0.34   -31.528750    0      12     
iter:  10  16:42:08  +2.00  -0.47   -32.358229    0      11     
iter:  11  16:42:30  +1.28  -0.48   -16.593045    0      11     
iter:  12  16:42:52  +0.94  -0.82   -17.973012    0      10     
iter:  13  16:43:15  +0.19  -1.11   -18.175514    0      8      
iter:  14  16:43:37  -0.50  -1.22   -18.276076    0      8      
iter:  15  16:43:59  -0.40  -1.48   -18.302533    0      7      
iter:  16  16:44:20  -0.73  -1.60   -18.359501    0      7      
iter:  17  16:44:42  -0.89  -1.88   -18.398994    0      7      
iter:  18  16:45:03  -1.43  -2.12   -18.407046    0      6      
iter:  19  16:45:25  -1.90  -2.26   -18.409400    0      6      
iter:  20  16:45:46  -2.24  -2.46   -18.410358    0      5      
iter:  21  16:46:07  -2.53  -2.58   -18.410640    0      4      
iter:  22  16:46:28  -2.77  -2.74   -18.410714    0      5      
iter:  23  16:46:49  -2.95  -2.99   -18.410931    0      4      
iter:  24  16:47:09  -3.58  -3.32   -18.411042    0      3      
iter:  25  16:47:30  -3.90  -3.42   -18.411088    0      3      
iter:  26  16:47:50  -4.16  -3.60   -18.411205    0      3      
iter:  27  16:48:10  -4.37  -3.73   -18.411249    0      3      
iter:  28  16:48:30  -4.56  -3.85   -18.411274    0      3      
iter:  29  16:48:51  -4.83  -3.98   -18.411286    0      3      
iter:  30  16:49:10  -4.96  -4.17   -18.411326    0      2      
iter:  31  16:49:30  -5.16  -4.30   -18.411322    0      2      
iter:  32  16:49:50  -5.37  -4.50   -18.411298    0      2      
iter:  33  16:50:10  -5.86  -4.65   -18.411278    0      1      
iter:  34  16:50:30  -5.99  -4.68   -18.411280    0      2      
iter:  35  16:50:50  -6.17  -4.94   -18.411252    0      1      
iter:  36  16:51:10  -6.67  -5.10   -18.411237    0      1      
iter:  37  16:51:29  -7.04  -5.40   -18.411253    0      1      
iter:  38  16:51:49  -7.81  -5.55   -18.411271    0      1      

Converged after 38 iterations.

Dipole moment: (0.184679, 0.905627, 0.000000) |e|*Ang

Energy contributions relative to reference atoms: (reference = -412395.464894)

Kinetic:        +27.511513
Potential:      -17.618868
External:        +0.000000
XC:             -28.348153
Entropy (-ST):   +0.000000
Local:           +0.044236
--------------------------
Free energy:    -18.411271
Extrapolated:   -18.411271

Fermi level: -3.71602

 Band  Eigenvalues  Occupancy
    0    -66.59856    2.00000
    1    -35.41408    2.00000
    2    -35.25814    2.00000
    3    -35.25259    2.00000
    4    -16.73403    2.00000
    5    -12.14164    2.00000
    6     -6.01307    2.00000
    7     -5.94359    2.00000
    8     -5.26580    2.00000
    9     -3.93223    2.00000
   10     -3.71602    1.00000
   11     -2.31200    0.00000
   12     -1.33514    0.00000
   13     -1.27258    0.00000
   14     -1.03830    0.00000
   15      2.73002    0.00000
   16      2.85378    0.00000
   17      2.93328    0.00000
   18      3.42434    0.00000
   19      6.87695    0.00000
   20      7.35089    0.00000

Writing to 3_27462_Pm_M06-L_R35_1536943137.gpw (mode='all')

Timing:                              incl.     excl.
-----------------------------------------------------------
Hamiltonian:                        20.511     0.000   0.0% |
 Atomic:                             2.827     0.001   0.0% |
  XC Correction:                     2.826     2.826   0.4% |
 Calculate atomic Hamiltonians:      0.009     0.009   0.0% |
 Communicate:                        0.000     0.000   0.0% |
 Hartree integrate/restrict:         0.019     0.019   0.0% |
 Initialize Hamiltonian:             0.000     0.000   0.0% |
 Poisson:                            2.970     2.970   0.4% |
 XC 3D grid:                        14.680    14.680   1.9% ||
 vbar:                               0.006     0.006   0.0% |
LCAO initialization:                 3.585     2.368   0.3% |
 LCAO eigensolver:                   0.141     0.000   0.0% |
  Calculate projections:             0.000     0.000   0.0% |
  DenseAtomicCorrection:             0.000     0.000   0.0% |
  Distribute overlap matrix:         0.000     0.000   0.0% |
  Orbital Layouts:                   0.001     0.001   0.0% |
  Potential matrix:                  0.139     0.139   0.0% |
 LCAO to grid:                       0.244     0.244   0.0% |
 Set positions (LCAO WFS):           0.831     0.000   0.0% |
  Basic WFS set positions:           0.000     0.000   0.0% |
  Basis functions set positions:     0.000     0.000   0.0% |
  TCI: Calculate S, T, P:            0.831     0.831   0.1% |
SCF-cycle:                         746.996     0.028   0.0% |
 CG:                                97.804    26.612   3.4% ||
  Apply hamiltonian:                29.401    29.401   3.8% |-|
  CG: orthonormalize:               15.235     8.077   1.0% |
   CG: overlap:                      7.011     7.011   0.9% |
   CG: overlap2:                     0.147     0.147   0.0% |
  Subspace diag:                    26.555     0.003   0.0% |
   calc_h_matrix:                   18.937     3.699   0.5% |
    Apply hamiltonian:              15.238    15.238   2.0% ||
   diagonalize:                      0.009     0.009   0.0% |
   rotate_psi:                       7.606     7.606   1.0% |
 Density:                            1.922     0.001   0.0% |
  Atomic density matrices:           0.025     0.025   0.0% |
  Mix:                               1.388     1.388   0.2% |
  Multipole moments:                 0.007     0.007   0.0% |
  Pseudo density:                    0.502     0.501   0.1% |
   Symmetrize density:               0.001     0.001   0.0% |
 Hamiltonian:                      647.087     0.004   0.0% |
  Atomic:                           60.692     0.034   0.0% |
   XC Correction:                   60.658    60.658   7.9% |--|
  Calculate atomic Hamiltonians:     0.370     0.370   0.0% |
  Communicate:                       0.000     0.000   0.0% |
  Hartree integrate/restrict:        0.795     0.795   0.1% |
  Poisson:                          49.775    49.775   6.4% |--|
  XC 3D grid:                      535.276   535.276  69.3% |---------------------------|
  vbar:                              0.174     0.174   0.0% |
 Orthonormalize:                     0.156     0.000   0.0% |
  calc_s_matrix:                     0.051     0.051   0.0% |
  inverse-cholesky:                  0.000     0.000   0.0% |
  projections:                       0.034     0.034   0.0% |
  rotate_psi_s:                      0.071     0.071   0.0% |
Set symmetry:                        0.001     0.001   0.0% |
Other:                               1.257     1.257   0.2% |
-----------------------------------------------------------
Total:                                       772.350 100.0%

Memory usage: 540.75 MiB
Date: Fri Sep 14 16:51:49 2018
