
  ___ ___ ___ _ _ _  
 |   |   |_  | | | | 
 | | | | | . | | | | 
 |__ |  _|___|_____|  1.4.0
 |___|_|             

User:   ???@93e7e28806d8
Date:   Fri Sep 14 17:04:22 2018
Arch:   x86_64
Pid:    1684
Python: 3.7.0
gpaw:   /app/gpaw/software/venv/lib/python3.7/site-packages/gpaw
_gpaw:  /app/gpaw/software/venv/lib/python3.7/site-packages/
        _gpaw.cpython-37m-x86_64-linux-gnu.so
ase:    /app/gpaw/software/venv/lib/python3.7/site-packages/ase (version 3.16.2)
numpy:  /app/gpaw/software/venv/lib/python3.7/site-packages/numpy (version 1.15.0)
scipy:  /app/gpaw/software/venv/lib/python3.7/site-packages/scipy (version 1.1.0)
units:  Angstrom and eV
cores:  1

Input parameters:
  basis: dzp
  eigensolver: cg
  gpts: [56 56 56]
  maxiter: 150
  mixer: {backend: pulay,
          beta: None,
          method: separate,
          nmaxold: None,
          weight: None}
  xc: M06-L

System changes: positions, numbers, cell, pbc, initial_charges, initial_magmoms 

Initialize ...

Hf-setup:
  name: Hafnium
  id: d03a45b6fa1dd7f07e443d1513edf499
  Z: 72
  valence: 12
  core: 60
  charge: 0.0
  file: /app/gpaw/datasets/Hf.PBE
  cutoffs: 1.30(comp), 2.36(filt), 4.02(core), lmax=2
  valence states:
                energy  radius
    5s(2.00)   -66.831   1.397
    6s(2.00)    -5.097   1.397
    5p(6.00)   -35.599   1.307
    6p(0.00)    -1.401   1.307
    5d(2.00)    -2.699   1.334
    *d          24.513   1.334

  LCAO basis set for Hf:
    Name: dzp
    File: /app/gpaw/datasets/Hf.dzp.basis
    Number of radial functions: 9
    Number of spherical harmonics: 27
      l=0, rc=3.5625 Bohr: 5s-sz confined orbital
      l=0, rc=9.5469 Bohr: 6s-sz confined orbital
      l=1, rc=4.3125 Bohr: 5p-sz confined orbital
      l=2, rc=8.5000 Bohr: 5d-sz confined orbital
      l=0, rc=2.2656 Bohr: 5s-dz split-valence wave
      l=0, rc=5.7812 Bohr: 6s-dz split-valence wave
      l=1, rc=2.6406 Bohr: 5p-dz split-valence wave
      l=2, rc=4.9844 Bohr: 5d-dz split-valence wave
      l=3, rc=8.5000 Bohr: f-type Gaussian polarization

N-setup:
  name: Nitrogen
  id: 45c8c9c739e7b131496b9fd2deb94bff
  Z: 7
  valence: 5
  core: 2
  charge: 0.0
  file: /app/gpaw/datasets/N.PBE
  cutoffs: 0.58(comp), 1.11(filt), 0.96(core), lmax=2
  valence states:
                energy  radius
    2s(2.00)   -18.583   0.603
    2p(3.00)    -7.089   0.529
    *s           8.629   0.603
    *p          20.123   0.529
    *d           0.000   0.577

  LCAO basis set for N:
    Name: dzp
    File: /app/gpaw/datasets/N.dzp.basis
    Number of radial functions: 5
    Number of spherical harmonics: 13
      l=0, rc=4.8594 Bohr: 2s-sz confined orbital
      l=1, rc=6.0625 Bohr: 2p-sz confined orbital
      l=0, rc=2.6094 Bohr: 2s-dz split-valence wave
      l=1, rc=3.2656 Bohr: 2p-dz split-valence wave
      l=2, rc=6.0625 Bohr: d-type Gaussian polarization

C-setup:
  name: Carbon
  id: 2f012631b351e3618121587a96c50fca
  Z: 6
  valence: 4
  core: 2
  charge: 0.0
  file: /app/gpaw/datasets/C.PBE
  cutoffs: 0.64(comp), 1.14(filt), 1.14(core), lmax=2
  valence states:
                energy  radius
    2s(2.00)   -13.751   0.635
    2p(2.00)    -5.285   0.635
    *s          13.461   0.635
    *p          21.927   0.635
    *d           0.000   0.635

  LCAO basis set for C:
    Name: dzp
    File: /app/gpaw/datasets/C.dzp.basis
    Number of radial functions: 5
    Number of spherical harmonics: 13
      l=0, rc=5.5938 Bohr: 2s-sz confined orbital
      l=1, rc=6.8750 Bohr: 2p-sz confined orbital
      l=0, rc=3.0938 Bohr: 2s-dz split-valence wave
      l=1, rc=3.8125 Bohr: 2p-dz split-valence wave
      l=2, rc=6.8750 Bohr: d-type Gaussian polarization

Reference energy: -412395.464894

Spin-paired calculation

Occupation numbers:
  Fermi-Dirac: width=0.0000 eV

Convergence criteria:
  Maximum total energy change: 0.0005 eV / electron
  Maximum integral of absolute density change: 0.0001 electrons
  Maximum integral of absolute eigenstate change: 4e-08 eV^2
  Maximum number of iterations: 150

Symmetries present (total): 1

  ( 1  0  0)
  ( 0  1  0)
  ( 0  0  1)

1 k-point (Gamma)
1 k-point in the irreducible part of the Brillouin zone
       k-points in crystal coordinates                weights
   0:     0.00000000    0.00000000    0.00000000          1/1

Wave functions: Uniform real-space grid
  Kinetic energy operator: 6*3+1=19 point O(h^6) finite-difference Laplacian
  ScaLapack parameters: grid=1x1, blocksize=None 

Eigensolver
   CG(niter=4, rtol=3.0e-01) 

Densities:
  Coarse grid: 56*56*56 grid
  Fine grid: 112*112*112 grid
  Total Charge: 0.000000 

Density mixing:
  Method: separate
  Backend: pulay
  Linear mixing parameter: 0.25
  Mixing with 3 old densities
  No damping of long wave oscillations 

Hamiltonian:
  XC and Coulomb potentials evaluated on a 112*112*112 grid
  Using the M06-L Exchange-Correlation functional
  Interpolation: tri-quintic (5. degree polynomial)
  Poisson solver: Jacobi solver with 5 multi-grid levels
    Coarsest grid: 7 x 7 x 7 points
    Stencil: 6*3+1=19 point O(h^6) finite-difference Laplacian
    Max iterations: 1000
    Tolerance: 2.000000e-10 

Memory estimate:
  Process memory now: 41.61 MiB
  Calculator: 195.06 MiB
    Density: 77.74 MiB
      Arrays: 33.84 MiB
      Localized functions: 36.28 MiB
      Mixer: 7.62 MiB
    Hamiltonian: 52.44 MiB
      Arrays: 22.14 MiB
      XC: 2.54 MiB
      Poisson: 25.33 MiB
      vbar: 2.44 MiB
    Wavefunctions: 64.88 MiB
      Arrays psit_nG: 26.66 MiB
      Eigensolver: 33.00 MiB
      Projections: 0.01 MiB
      Projectors: 5.21 MiB

Total number of cores used: 1

Number of atoms: 3
Number of atomic orbitals: 53
Number of bands in calculation: 21
Bands to converge: occupied states only
Number of valence electrons: 21

... initialized

Initializing position-dependent things.

Density initialized from atomic densities
Creating initial wave functions:
  21 bands from LCAO basis set

     .---------------.  
    /|               |  
   / |               |  
  /  |               |  
 *   |               |  
 |   |               |  
 |   |N    Hf  C     |  
 |   |               |  
 |   .---------------.  
 |  /               /   
 | /               /    
 |/               /     
 *---------------*      

Positions:
   0 Hf     3.165000    4.000000    3.250000    ( 0.0000,  0.0000,  0.0000)
   1 N      1.485000    3.000000    3.250000    ( 0.0000,  0.0000,  0.0000)
   2 C      5.015000    3.000000    3.250000    ( 0.0000,  0.0000,  0.0000)

Unit cell:
           periodic     x           y           z      points  spacing
  1. axis:    no     6.500000    0.000000    0.000000    56     0.1161
  2. axis:    no     0.000000    7.000000    0.000000    56     0.1250
  3. axis:    no     0.000000    0.000000    6.500000    56     0.1161

  Lengths:   6.500000   7.000000   6.500000
  Angles:   90.000000  90.000000  90.000000

Effective grid spacing dv^(1/3) = 0.1190

                     log10-error:    total        iterations:
           time      wfs    density  energy       fermi  poisson
iter:   1  17:04:53  +3.42   +inf  -444.857038    0      14     
iter:   2  17:04:56  +3.24   +inf  -716.652025    0             
iter:   3  17:04:58  +2.58   +inf  -806.688013    0             
iter:   4  17:05:20  +2.28  -0.22   -99.986993    0      11     
iter:   5  17:05:42  +2.75  -0.29    -5.895828    0      11     
iter:   6  17:06:04  +2.51  -0.56     1.299041    0      10     
iter:   7  17:06:26  +1.95  -0.69   -54.649185    0      10     
iter:   8  17:06:47  +2.19  -0.56   -12.463138    0      10     
iter:   9  17:07:09  +1.35  -0.92   -17.500483    0      10     
iter:  10  17:07:30  +0.85  -1.00   -18.228004    0      8      
iter:  11  17:07:51  +0.50  -0.91   -17.472755    0      9      
iter:  12  17:08:12  +0.54  -1.16   -17.778927    0      7      
iter:  13  17:08:33  -0.24  -1.19   -17.765949    0      7      
iter:  14  17:08:55  -0.71  -1.24   -17.764544    0      7      
iter:  15  17:09:17  -0.66  -1.32   -17.890146    0      8      
iter:  16  17:09:39  -0.58  -1.60   -17.947260    0      8      
iter:  17  17:10:00  -0.97  -2.00   -17.967762    0      6      
iter:  18  17:10:21  -1.69  -2.09   -17.973636    0      5      
iter:  19  17:10:43  -2.28  -2.15   -17.977896    0      5      
iter:  20  17:11:04  -1.95  -2.31   -17.982705    0      5      
iter:  21  17:11:26  -1.94  -2.22   -17.983816    0      6      
iter:  22  17:11:46  -2.22  -2.73   -17.985530    0      5      
iter:  23  17:12:07  -2.81  -2.79   -17.985889    0      4      
iter:  24  17:12:28  -3.79  -2.83   -17.985908    0      3      
iter:  25  17:12:49  -3.81  -2.83   -17.986335    0      4      
iter:  26  17:13:10  -2.91  -2.96   -17.987293    0      5      
iter:  27  17:13:31  -3.32  -3.52   -17.987469    0      3      
iter:  28  17:13:52  -3.98  -3.43   -17.987451    0      2      
iter:  29  17:14:12  -5.03  -3.36   -17.987417    0      1      
iter:  30  17:14:33  -4.39  -3.37   -17.987521    0      3      
iter:  31  17:14:54  -3.74  -3.49   -17.987680    0      4      
iter:  32  17:15:15  -4.03  -3.73   -17.987724    0      3      
iter:  33  17:15:36  -4.15  -3.69   -17.987780    0      3      
iter:  34  17:15:57  -4.29  -3.81   -17.987810    0      3      
iter:  35  17:16:17  -3.98  -3.89   -17.987829    0      3      
iter:  36  17:16:38  -3.92  -3.98   -17.987856    0      3      
iter:  37  17:16:59  -4.32  -4.05   -17.987890    0      3      
iter:  38  17:17:19  -4.63  -4.25   -17.987889    0      3      
iter:  39  17:17:39  -5.13  -4.20   -17.987897    0      2      
iter:  40  17:18:01  -4.91  -4.41   -17.987896    0      3      
iter:  41  17:18:22  -5.26  -4.47   -17.988007    0      1      
iter:  42  17:18:44  -5.84  -4.61   -17.987951    0      1      
iter:  43  17:19:04  -6.58  -4.62   -17.987967    0      1      
iter:  44  17:19:24  -7.06  -4.73   -17.987887    0      1      
iter:  45  17:19:44  -7.29  -4.74   -17.987927    0      1      
iter:  46  17:20:03  -6.84  -4.80   -17.987932    0      1      
iter:  47  17:20:22  -5.62  -4.84   -17.987974    0      1      
iter:  48  17:20:41  -6.26  -5.16   -17.987928    0      1      
iter:  49  17:21:00  -6.41  -5.26   -17.987910    0      1      
iter:  50  17:21:19  -6.82  -5.32   -17.987905    0      1      
iter:  51  17:21:38  -6.43  -5.36   -17.987914    0      1      
iter:  52  17:21:57  -5.44  -5.49   -17.987925    0      1      
iter:  53  17:22:16  -6.13  -5.66   -17.987909    0      1      
iter:  54  17:22:36  -6.69  -5.78   -17.987915    0      1      
iter:  55  17:22:55  -7.68  -5.81   -17.987909    0      1      

Converged after 55 iterations.

Dipole moment: (0.403556, 1.272796, 0.000000) |e|*Ang

Energy contributions relative to reference atoms: (reference = -412395.464894)

Kinetic:         -1.033021
Potential:       +5.463524
External:        +0.000000
XC:             -22.303016
Entropy (-ST):   +0.000000
Local:           -0.115396
--------------------------
Free energy:    -17.987909
Extrapolated:   -17.987909

Fermi level: -3.95654

 Band  Eigenvalues  Occupancy
    0    -66.76108    2.00000
    1    -35.45896    2.00000
    2    -35.22413    2.00000
    3    -34.92923    2.00000
    4    -16.33562    2.00000
    5    -12.76922    2.00000
    6     -5.23220    2.00000
    7     -4.87977    2.00000
    8     -4.52376    2.00000
    9     -4.17844    2.00000
   10     -3.95654    1.00000
   11     -3.41428    0.00000
   12     -2.04368    0.00000
   13     -1.01833    0.00000
   14     -0.86078    0.00000
   15      0.77700    0.00000
   16      0.84368    0.00000
   17      2.72743    0.00000
   18      2.91441    0.00000
   19      4.73115    0.00000
   20      7.79261    0.00000

Writing to 3_29574_Pm_M06-L_R42_1536944662.gpw (mode='all')

Timing:                              incl.     excl.
-----------------------------------------------------------
Hamiltonian:                        21.336     0.000   0.0% |
 Atomic:                             2.869     0.001   0.0% |
  XC Correction:                     2.868     2.868   0.3% |
 Calculate atomic Hamiltonians:      0.009     0.009   0.0% |
 Communicate:                        0.000     0.000   0.0% |
 Hartree integrate/restrict:         0.021     0.021   0.0% |
 Initialize Hamiltonian:             0.000     0.000   0.0% |
 Poisson:                            3.328     3.328   0.3% |
 XC 3D grid:                        15.101    15.101   1.4% ||
 vbar:                               0.007     0.007   0.0% |
LCAO initialization:                 3.767     2.506   0.2% |
 LCAO eigensolver:                   0.137     0.000   0.0% |
  Calculate projections:             0.000     0.000   0.0% |
  DenseAtomicCorrection:             0.000     0.000   0.0% |
  Distribute overlap matrix:         0.000     0.000   0.0% |
  Orbital Layouts:                   0.001     0.001   0.0% |
  Potential matrix:                  0.135     0.135   0.0% |
 LCAO to grid:                       0.243     0.243   0.0% |
 Set positions (LCAO WFS):           0.881     0.000   0.0% |
  Basic WFS set positions:           0.000     0.000   0.0% |
  Basis functions set positions:     0.000     0.000   0.0% |
  TCI: Calculate S, T, P:            0.880     0.880   0.1% |
SCF-cycle:                        1085.834     0.039   0.0% |
 CG:                               136.895    35.605   3.2% ||
  Apply hamiltonian:                39.561    39.561   3.6% ||
  CG: orthonormalize:               20.527    10.825   1.0% |
   CG: overlap:                      9.506     9.506   0.9% |
   CG: overlap2:                     0.196     0.196   0.0% |
  Subspace diag:                    41.201     0.005   0.0% |
   calc_h_matrix:                   29.319     6.047   0.5% |
    Apply hamiltonian:              23.272    23.272   2.1% ||
   diagonalize:                      0.013     0.013   0.0% |
   rotate_psi:                      11.864    11.864   1.1% |
 Density:                            2.688     0.001   0.0% |
  Atomic density matrices:           0.037     0.037   0.0% |
  Mix:                               1.937     1.937   0.2% |
  Multipole moments:                 0.010     0.010   0.0% |
  Pseudo density:                    0.703     0.702   0.1% |
   Symmetrize density:               0.001     0.001   0.0% |
 Hamiltonian:                      946.069     0.006   0.0% |
  Atomic:                           91.341     0.052   0.0% |
   XC Correction:                   91.290    91.290   8.2% |--|
  Calculate atomic Hamiltonians:     0.509     0.509   0.0% |
  Communicate:                       0.000     0.000   0.0% |
  Hartree integrate/restrict:        1.259     1.259   0.1% |
  Poisson:                          54.997    54.997   4.9% |-|
  XC 3D grid:                      797.725   797.725  71.7% |----------------------------|
  vbar:                              0.230     0.230   0.0% |
 Orthonormalize:                     0.145     0.000   0.0% |
  calc_s_matrix:                     0.047     0.047   0.0% |
  inverse-cholesky:                  0.000     0.000   0.0% |
  projections:                       0.032     0.032   0.0% |
  rotate_psi_s:                      0.065     0.065   0.0% |
Set symmetry:                        0.001     0.001   0.0% |
Other:                               1.285     1.285   0.1% |
-----------------------------------------------------------
Total:                                      1112.223 100.0%

Memory usage: 537.53 MiB
Date: Fri Sep 14 17:22:55 2018
