
  ___ ___ ___ _ _ _  
 |   |   |_  | | | | 
 | | | | | . | | | | 
 |__ |  _|___|_____|  1.4.0
 |___|_|             

User:   ???@93e7e28806d8
Date:   Fri Sep 14 11:49:24 2018
Arch:   x86_64
Pid:    219
Python: 3.7.0
gpaw:   /app/gpaw/software/venv/lib/python3.7/site-packages/gpaw
_gpaw:  /app/gpaw/software/venv/lib/python3.7/site-packages/
        _gpaw.cpython-37m-x86_64-linux-gnu.so
ase:    /app/gpaw/software/venv/lib/python3.7/site-packages/ase (version 3.16.2)
numpy:  /app/gpaw/software/venv/lib/python3.7/site-packages/numpy (version 1.15.0)
scipy:  /app/gpaw/software/venv/lib/python3.7/site-packages/scipy (version 1.1.0)
units:  Angstrom and eV
cores:  1

Input parameters:
  eigensolver: cg
  gpts: [48 40 40]
  maxiter: 150
  mixer: {backend: pulay,
          beta: None,
          method: separate,
          nmaxold: None,
          weight: None}
  xc: M06-L

System changes: positions, numbers, cell, pbc, initial_charges, initial_magmoms 

Initialize ...

Hf-setup:
  name: Hafnium
  id: d03a45b6fa1dd7f07e443d1513edf499
  Z: 72
  valence: 12
  core: 60
  charge: 0.0
  file: /app/gpaw/datasets/Hf.PBE
  cutoffs: 1.30(comp), 2.36(filt), 4.02(core), lmax=2
  valence states:
                energy  radius
    5s(2.00)   -66.831   1.397
    6s(2.00)    -5.097   1.397
    5p(6.00)   -35.599   1.307
    6p(0.00)    -1.401   1.307
    5d(2.00)    -2.699   1.334
    *d          24.513   1.334

  Using partial waves for Hf as LCAO basis

N-setup:
  name: Nitrogen
  id: 45c8c9c739e7b131496b9fd2deb94bff
  Z: 7
  valence: 5
  core: 2
  charge: 0.0
  file: /app/gpaw/datasets/N.PBE
  cutoffs: 0.58(comp), 1.11(filt), 0.96(core), lmax=2
  valence states:
                energy  radius
    2s(2.00)   -18.583   0.603
    2p(3.00)    -7.089   0.529
    *s           8.629   0.603
    *p          20.123   0.529
    *d           0.000   0.577

  Using partial waves for N as LCAO basis

C-setup:
  name: Carbon
  id: 2f012631b351e3618121587a96c50fca
  Z: 6
  valence: 4
  core: 2
  charge: 0.0
  file: /app/gpaw/datasets/C.PBE
  cutoffs: 0.64(comp), 1.14(filt), 1.14(core), lmax=2
  valence states:
                energy  radius
    2s(2.00)   -13.751   0.635
    2p(2.00)    -5.285   0.635
    *s          13.461   0.635
    *p          21.927   0.635
    *d           0.000   0.635

  Using partial waves for C as LCAO basis

Reference energy: -412395.464894

Spin-paired calculation

Occupation numbers:
  Fermi-Dirac: width=0.0000 eV

Convergence criteria:
  Maximum total energy change: 0.0005 eV / electron
  Maximum integral of absolute density change: 0.0001 electrons
  Maximum integral of absolute eigenstate change: 4e-08 eV^2
  Maximum number of iterations: 150

Symmetries present (total): 1

  ( 1  0  0)
  ( 0  1  0)
  ( 0  0  1)

1 k-point (Gamma)
1 k-point in the irreducible part of the Brillouin zone
       k-points in crystal coordinates                weights
   0:     0.00000000    0.00000000    0.00000000          1/1

Wave functions: Uniform real-space grid
  Kinetic energy operator: 6*3+1=19 point O(h^6) finite-difference Laplacian
  ScaLapack parameters: grid=1x1, blocksize=None 

Eigensolver
   CG(niter=4, rtol=3.0e-01) 

Densities:
  Coarse grid: 48*40*40 grid
  Fine grid: 96*80*80 grid
  Total Charge: 0.000000 

Density mixing:
  Method: separate
  Backend: pulay
  Linear mixing parameter: 0.25
  Mixing with 3 old densities
  No damping of long wave oscillations 

Hamiltonian:
  XC and Coulomb potentials evaluated on a 96*80*80 grid
  Using the M06-L Exchange-Correlation functional
  Interpolation: tri-quintic (5. degree polynomial)
  Poisson solver: Jacobi solver with 5 multi-grid levels
    Coarsest grid: 6 x 5 x 5 points
    Stencil: 6*3+1=19 point O(h^6) finite-difference Laplacian
    Max iterations: 1000
    Tolerance: 2.000000e-10 

Memory estimate:
  Process memory now: 41.46 MiB
  Calculator: 83.17 MiB
    Density: 32.74 MiB
      Arrays: 14.66 MiB
      Localized functions: 14.81 MiB
      Mixer: 3.27 MiB
    Hamiltonian: 22.66 MiB
      Arrays: 9.59 MiB
      XC: 1.09 MiB
      Poisson: 10.98 MiB
      vbar: 0.99 MiB
    Wavefunctions: 27.77 MiB
      Arrays psit_nG: 11.45 MiB
      Eigensolver: 14.18 MiB
      Projections: 0.01 MiB
      Projectors: 2.13 MiB

Total number of cores used: 1

Number of atoms: 3
Number of atomic orbitals: 21
Number of bands in calculation: 21
Bands to converge: occupied states only
Number of valence electrons: 21

... initialized

Initializing position-dependent things.

Density initialized from atomic densities
Creating initial wave functions:
  21 bands from LCAO basis set

     .-----------------.  
    /|                 |  
   / |                 |  
  /  |                 |  
 *   |                 |  
 |   |                 |  
 |   |  N   Hf  C      |  
 |   |                 |  
 |   .-----------------.  
 |  /                 /   
 | /                 /    
 |/                 /     
 *-----------------*      

Positions:
   0 Hf     3.730000    3.300000    3.250000    ( 0.0000,  0.0000,  0.0000)
   1 N      1.920000    3.200000    3.250000    ( 0.0000,  0.0000,  0.0000)
   2 C      5.580000    3.200000    3.250000    ( 0.0000,  0.0000,  0.0000)

Unit cell:
           periodic     x           y           z      points  spacing
  1. axis:    no     7.500000    0.000000    0.000000    48     0.1562
  2. axis:    no     0.000000    6.500000    0.000000    40     0.1625
  3. axis:    no     0.000000    0.000000    6.500000    40     0.1625

  Lengths:   7.500000   6.500000   6.500000
  Angles:   90.000000  90.000000  90.000000

Effective grid spacing dv^(1/3) = 0.1604

                     log10-error:    total        iterations:
           time      wfs    density  energy       fermi  poisson
iter:   1  11:49:38  +3.09   +inf  -435.808172    0      15     
iter:   2  11:49:39  +2.80   +inf  -654.826758    0             
iter:   3  11:49:40  +2.21   +inf  -694.026924    0             
iter:   4  11:49:51  +2.45  -0.13     0.672570    0      13     
iter:   5  11:50:00  +2.78  -0.21   -26.072619    0      11     
iter:   6  11:50:10  +2.27  -0.49   -17.316582    0      10     
iter:   7  11:50:20  +1.60  -0.55   -19.824435    0      12     
iter:   8  11:50:30  +0.92  -0.77   -21.711703    0      11     
iter:   9  11:50:40  +0.83  -0.79   -20.405704    0      10     
iter:  10  11:50:49  +0.25  -1.03   -19.877685    0      7      
iter:  11  11:50:59  -0.43  -1.24   -20.141218    0      8      
iter:  12  11:51:09  -1.20  -1.37   -20.132389    0      7      
iter:  13  11:51:18  -0.74  -1.42   -20.256982    0      8      
iter:  14  11:51:28  -0.88  -1.42   -20.216961    0      7      
iter:  15  11:51:38  -1.09  -1.57   -20.260489    0      6      
iter:  16  11:51:47  -1.14  -1.46   -20.216961    0      5      
iter:  17  11:51:56  -1.26  -1.59   -20.258481    0      5      
iter:  18  11:52:05  -1.09  -1.47   -20.217754    0      5      
iter:  19  11:52:14  -1.12  -1.60   -20.257299    0      4      
iter:  20  11:52:24  -1.21  -1.48   -20.219611    0      4      
iter:  21  11:52:33  -1.25  -1.60   -20.257622    0      4      
iter:  22  11:52:42  -1.19  -1.48   -20.225046    0      4      
iter:  23  11:52:51  -1.13  -1.61   -20.258253    0      3      
iter:  24  11:53:00  -1.14  -1.48   -20.224727    0      3      
iter:  25  11:53:09  -1.19  -1.61   -20.258072    0      2      
iter:  26  11:53:18  -1.15  -1.48   -20.224875    0      3      
iter:  27  11:53:27  -1.33  -1.61   -20.258590    0      3      
iter:  28  11:53:36  -1.24  -1.48   -20.227319    0      4      
iter:  29  11:53:45  -1.14  -1.61   -20.259706    0      3      
iter:  30  11:53:54  -1.18  -1.48   -20.227498    0      2      
iter:  31  11:54:03  -1.17  -1.61   -20.258970    0      2      
iter:  32  11:54:12  -1.17  -1.48   -20.227363    0      3      
iter:  33  11:54:21  -1.40  -1.61   -20.258906    0      2      
iter:  34  11:54:30  -1.23  -1.48   -20.227773    0      3      
iter:  35  11:54:39  -1.15  -1.61   -20.259118    0      2      
iter:  36  11:54:48  -1.16  -1.48   -20.227772    0      3      
iter:  37  11:54:58  -1.19  -1.61   -20.258738    0      3      
iter:  38  11:55:07  -1.24  -1.48   -20.227920    0      3      
iter:  39  11:55:16  -1.28  -1.61   -20.258892    0      2      
iter:  40  11:55:26  -1.23  -1.48   -20.227859    0      1      
iter:  41  11:55:35  -1.15  -1.61   -20.259007    0      2      
iter:  42  11:55:44  -1.16  -1.48   -20.227937    0      2      
iter:  43  11:55:53  -1.27  -1.61   -20.258769    0      1      
iter:  44  11:56:02  -1.17  -1.48   -20.228242    0      3      
iter:  45  11:56:12  -1.29  -1.61   -20.258697    0      2      
iter:  46  11:56:21  -1.23  -1.48   -20.228218    0      2      
iter:  47  11:56:30  -1.15  -1.61   -20.258820    0      1      
iter:  48  11:56:39  -1.23  -1.48   -20.228199    0      2      
iter:  49  11:56:48  -1.19  -1.61   -20.258665    0      1      
iter:  50  11:56:58  -1.17  -1.48   -20.228342    0      2      
iter:  51  11:57:07  -1.29  -1.61   -20.258598    0      1      
iter:  52  11:57:16  -1.23  -1.48   -20.228218    0      1      
iter:  53  11:57:25  -1.22  -1.61   -20.258928    0      1      
iter:  54  11:57:34  -1.16  -1.48   -20.228448    0      1      
iter:  55  11:57:43  -1.20  -1.61   -20.258579    0      1      
iter:  56  11:57:52  -1.17  -1.48   -20.228261    0      1      
iter:  57  11:58:02  -1.29  -1.61   -20.258470    0      1      
iter:  58  11:58:11  -1.32  -1.48   -20.228355    0      1      
iter:  59  11:58:20  -1.14  -1.61   -20.258919    0      1      
iter:  60  11:58:29  -1.16  -1.48   -20.228441    0      1      
iter:  61  11:58:38  -1.20  -1.61   -20.258464    0      1      
iter:  62  11:58:48  -1.17  -1.48   -20.228302    0      1      
iter:  63  11:58:57  -1.39  -1.61   -20.258445    0      1      
iter:  64  11:59:06  -1.23  -1.48   -20.228436    0      1      
iter:  65  11:59:15  -1.15  -1.61   -20.258935    0      1      
iter:  66  11:59:24  -1.17  -1.48   -20.228384    0      1      
iter:  67  11:59:33  -1.20  -1.61   -20.258378    0      1      
iter:  68  11:59:42  -1.24  -1.48   -20.228370    0      1      
iter:  69  11:59:52  -1.28  -1.61   -20.258484    0      1      
iter:  70  12:00:01  -1.23  -1.48   -20.228471    0      1      
iter:  71  12:00:10  -1.15  -1.61   -20.258786    0      1      
iter:  72  12:00:19  -1.16  -1.48   -20.228407    0      1      
iter:  73  12:00:28  -1.27  -1.61   -20.258390    0      1      
iter:  74  12:00:38  -1.17  -1.48   -20.228523    0      1      
iter:  75  12:00:47  -1.29  -1.61   -20.258445    0      1      
iter:  76  12:00:56  -1.23  -1.48   -20.228436    0      1      
iter:  77  12:01:05  -1.15  -1.61   -20.258732    0      1      
iter:  78  12:01:14  -1.23  -1.48   -20.228481    0      1      
iter:  79  12:01:23  -1.19  -1.61   -20.258467    0      1      
iter:  80  12:01:33  -1.17  -1.48   -20.228421    0      1      
iter:  81  12:01:42  -1.29  -1.61   -20.258377    0      1      
iter:  82  12:01:51  -1.23  -1.48   -20.228420    0      1      
iter:  83  12:02:00  -1.22  -1.61   -20.258736    0      1      
iter:  84  12:02:09  -1.16  -1.48   -20.228596    0      1      
iter:  85  12:02:18  -1.20  -1.61   -20.258424    0      1      
iter:  86  12:02:28  -1.23  -1.48   -20.228505    0      1      
iter:  87  12:02:37  -1.16  -1.61   -20.258377    0      1      
iter:  88  12:02:46  -1.31  -1.48   -20.228317    0      1      
iter:  89  12:02:55  -1.17  -1.61   -20.258535    0      1      
iter:  90  12:03:04  -1.16  -1.48   -20.228519    0      1      
iter:  91  12:03:13  -1.32  -1.61   -20.258461    0      1      
iter:  92  12:03:23  -1.16  -1.48   -20.228604    0      1      
iter:  93  12:03:32  -1.21  -1.61   -20.258419    0      1      
iter:  94  12:03:41  -1.24  -1.48   -20.228497    0      1      
iter:  95  12:03:50  -1.17  -1.61   -20.258504    0      1      
iter:  96  12:03:59  -1.22  -1.48   -20.228570    0      1      
iter:  97  12:04:08  -1.19  -1.61   -20.258486    0      1      
iter:  98  12:04:18  -1.23  -1.48   -20.228508    0      1      
iter:  99  12:04:27  -1.17  -1.61   -20.258249    0      1      
iter: 100  12:04:36  -1.23  -1.48   -20.228426    0      1      
iter: 101  12:04:45  -1.17  -1.61   -20.258403    0      1      
iter: 102  12:04:54  -1.22  -1.48   -20.228550    0      1      
iter: 103  12:05:03  -1.26  -1.61   -20.258491    0      1      
iter: 104  12:05:13  -1.16  -1.48   -20.228620    0      1      
iter: 105  12:05:22  -1.17  -1.61   -20.258248    0      1      
iter: 106  12:05:31  -1.24  -1.48   -20.228375    0      1      
iter: 107  12:05:40  -1.17  -1.61   -20.258331    0      1      
iter: 108  12:05:49  -1.30  -1.48   -20.228612    0      1      
iter: 109  12:05:58  -1.19  -1.61   -20.258573    0      1      
iter: 110  12:06:07  -1.16  -1.48   -20.228542    0      1      
iter: 111  12:06:16  -1.17  -1.61   -20.258192    0      1      
iter: 112  12:06:25  -1.24  -1.48   -20.228373    0      1      
iter: 113  12:06:34  -1.38  -1.61   -20.258513    0      1      
iter: 114  12:06:44  -1.15  -1.48   -20.228739    0      1      
iter: 115  12:06:53  -1.17  -1.61   -20.258684    0      1      
iter: 116  12:07:02  -1.18  -1.48   -20.228457    0      1      
iter: 117  12:07:11  -1.17  -1.61   -20.258162    0      1      
iter: 118  12:07:20  -1.32  -1.48   -20.228364    0      1      
iter: 119  12:07:29  -1.24  -1.61   -20.258511    0      1      
iter: 120  12:07:38  -1.21  -1.48   -20.228788    0      1      
iter: 121  12:07:47  -1.19  -1.61   -20.258559    0      1      
iter: 122  12:07:56  -1.16  -1.48   -20.228561    0      1      
iter: 123  12:08:06  -1.24  -1.61   -20.258137    0      1      
iter: 124  12:08:15  -1.23  -1.48   -20.228491    0      1      
iter: 125  12:08:24  -1.17  -1.61   -20.258457    0      1      
iter: 126  12:08:33  -1.22  -1.48   -20.228585    0      1      
iter: 127  12:08:42  -1.19  -1.61   -20.258423    0      1      
iter: 128  12:08:51  -1.23  -1.48   -20.228525    0      1      
iter: 129  12:09:00  -1.17  -1.61   -20.258220    0      1      
iter: 130  12:09:09  -1.24  -1.48   -20.228456    0      1      
iter: 131  12:09:18  -1.17  -1.61   -20.258379    0      1      
iter: 132  12:09:28  -1.22  -1.48   -20.228579    0      1      
iter: 133  12:09:37  -1.26  -1.61   -20.258469    0      1      
iter: 134  12:09:46  -1.16  -1.48   -20.228636    0      1      
iter: 135  12:09:55  -1.17  -1.61   -20.258232    0      1      
iter: 136  12:10:04  -1.24  -1.48   -20.228399    0      1      
iter: 137  12:10:13  -1.17  -1.61   -20.258328    0      1      
iter: 138  12:10:22  -1.30  -1.48   -20.228631    0      1      
iter: 139  12:10:31  -1.19  -1.61   -20.258561    0      1      
iter: 140  12:10:41  -1.16  -1.48   -20.228564    0      1      
iter: 141  12:10:50  -1.17  -1.61   -20.258170    0      1      
iter: 142  12:10:59  -1.24  -1.48   -20.228378    0      1      
iter: 143  12:11:08  -1.24  -1.61   -20.258330    0      1      
iter: 144  12:11:17  -1.21  -1.48   -20.228738    0      1      
iter: 145  12:11:26  -1.19  -1.61   -20.258524    0      1      
iter: 146  12:11:35  -1.16  -1.48   -20.228520    0      1      
iter: 147  12:11:44  -1.17  -1.61   -20.258128    0      1      
iter: 148  12:11:54  -1.32  -1.48   -20.228426    0      1      
iter: 149  12:12:03  -1.16  -1.61   -20.258400    0      1      
iter: 150  12:12:12  -1.22  -1.48   -20.228683    0      1      

Did not converge!

Here are some tips:

1) Make sure the geometry and spin-state is physically sound.
2) Use less aggressive density mixing.
3) Solve the eigenvalue problem more accurately at each scf-step.
4) Use a smoother distribution function for the occupation numbers.
5) Try adding more empty states.
6) Use enough k-points.
7) Don't let your structure optimization algorithm take too large steps.
8) Solve the Poisson equation more accurately.
9) Better initial guess for the wave functions.

See details here:

    https://wiki.fysik.dtu.dk/gpaw/documentation/convergence.html


Timing:                              incl.     excl.
-----------------------------------------------------------
Hamiltonian:                        10.504     0.000   0.0% |
 Atomic:                             2.732     0.001   0.0% |
  XC Correction:                     2.731     2.731   0.2% |
 Calculate atomic Hamiltonians:      0.004     0.004   0.0% |
 Communicate:                        0.000     0.000   0.0% |
 Hartree integrate/restrict:         0.007     0.007   0.0% |
 Initialize Hamiltonian:             0.000     0.000   0.0% |
 Poisson:                            1.417     1.417   0.1% |
 XC 3D grid:                         6.342     6.342   0.5% |
 vbar:                               0.003     0.003   0.0% |
LCAO initialization:                 0.662     0.574   0.0% |
 LCAO eigensolver:                   0.028     0.000   0.0% |
  Calculate projections:             0.000     0.000   0.0% |
  DenseAtomicCorrection:             0.000     0.000   0.0% |
  Distribute overlap matrix:         0.000     0.000   0.0% |
  Orbital Layouts:                   0.000     0.000   0.0% |
  Potential matrix:                  0.027     0.027   0.0% |
 LCAO to grid:                       0.055     0.055   0.0% |
 Set positions (LCAO WFS):           0.005     0.000   0.0% |
  Basic WFS set positions:           0.000     0.000   0.0% |
  Basis functions set positions:     0.000     0.000   0.0% |
  TCI: Calculate S, T, P:            0.004     0.004   0.0% |
SCF-cycle:                        1363.759     0.068   0.0% |
 CG:                               111.994    28.308   2.1% ||
  Apply hamiltonian:                30.125    30.125   2.2% ||
  CG: orthonormalize:               14.781     7.488   0.5% |
   CG: overlap:                      6.969     6.969   0.5% |
   CG: overlap2:                     0.324     0.324   0.0% |
  Subspace diag:                    38.780     0.012   0.0% |
   calc_h_matrix:                   28.676     4.848   0.4% |
    Apply hamiltonian:              23.828    23.828   1.7% ||
   diagonalize:                      0.037     0.037   0.0% |
   rotate_psi:                      10.055    10.055   0.7% |
 Density:                            3.136     0.003   0.0% |
  Atomic density matrices:           0.099     0.099   0.0% |
  Mix:                               2.200     2.200   0.2% |
  Multipole moments:                 0.027     0.027   0.0% |
  Pseudo density:                    0.807     0.805   0.1% |
   Symmetrize density:               0.002     0.002   0.0% |
 Hamiltonian:                     1248.514     0.016   0.0% |
  Atomic:                          248.773     0.135   0.0% |
   XC Correction:                  248.637   248.637  18.1% |------|
  Calculate atomic Hamiltonians:     0.631     0.631   0.0% |
  Communicate:                       0.001     0.001   0.0% |
  Hartree integrate/restrict:        1.206     1.206   0.1% |
  Poisson:                          30.213    30.213   2.2% ||
  XC 3D grid:                      967.438   967.438  70.3% |---------------------------|
  vbar:                              0.237     0.237   0.0% |
 Orthonormalize:                     0.047     0.000   0.0% |
  calc_s_matrix:                     0.015     0.015   0.0% |
  inverse-cholesky:                  0.000     0.000   0.0% |
  projections:                       0.013     0.013   0.0% |
  rotate_psi_s:                      0.019     0.019   0.0% |
Set symmetry:                        0.001     0.001   0.0% |
Other:                               1.018     1.018   0.1% |
-----------------------------------------------------------
Total:                                      1375.944 100.0%

Memory usage: 335.53 MiB
Date: Fri Sep 14 12:12:20 2018
