
  ___ ___ ___ _ _ _  
 |   |   |_  | | | | 
 | | | | | . | | | | 
 |__ |  _|___|_____|  1.4.0
 |___|_|             

User:   ???@93e7e28806d8
Date:   Fri Sep 14 12:28:54 2018
Arch:   x86_64
Pid:    293
Python: 3.7.0
gpaw:   /app/gpaw/software/venv/lib/python3.7/site-packages/gpaw
_gpaw:  /app/gpaw/software/venv/lib/python3.7/site-packages/
        _gpaw.cpython-37m-x86_64-linux-gnu.so
ase:    /app/gpaw/software/venv/lib/python3.7/site-packages/ase (version 3.16.2)
numpy:  /app/gpaw/software/venv/lib/python3.7/site-packages/numpy (version 1.15.0)
scipy:  /app/gpaw/software/venv/lib/python3.7/site-packages/scipy (version 1.1.0)
units:  Angstrom and eV
cores:  1

Input parameters:
  basis: dzp
  eigensolver: cg
  gpts: [48 40 40]
  maxiter: 150
  mixer: {backend: pulay,
          beta: None,
          method: separate,
          nmaxold: None,
          weight: None}
  xc: M06-L

System changes: positions, numbers, cell, pbc, initial_charges, initial_magmoms 

Initialize ...

Hf-setup:
  name: Hafnium
  id: d03a45b6fa1dd7f07e443d1513edf499
  Z: 72
  valence: 12
  core: 60
  charge: 0.0
  file: /app/gpaw/datasets/Hf.PBE
  cutoffs: 1.30(comp), 2.36(filt), 4.02(core), lmax=2
  valence states:
                energy  radius
    5s(2.00)   -66.831   1.397
    6s(2.00)    -5.097   1.397
    5p(6.00)   -35.599   1.307
    6p(0.00)    -1.401   1.307
    5d(2.00)    -2.699   1.334
    *d          24.513   1.334

  LCAO basis set for Hf:
    Name: dzp
    File: /app/gpaw/datasets/Hf.dzp.basis
    Number of radial functions: 9
    Number of spherical harmonics: 27
      l=0, rc=3.5625 Bohr: 5s-sz confined orbital
      l=0, rc=9.5469 Bohr: 6s-sz confined orbital
      l=1, rc=4.3125 Bohr: 5p-sz confined orbital
      l=2, rc=8.5000 Bohr: 5d-sz confined orbital
      l=0, rc=2.2656 Bohr: 5s-dz split-valence wave
      l=0, rc=5.7812 Bohr: 6s-dz split-valence wave
      l=1, rc=2.6406 Bohr: 5p-dz split-valence wave
      l=2, rc=4.9844 Bohr: 5d-dz split-valence wave
      l=3, rc=8.5000 Bohr: f-type Gaussian polarization

N-setup:
  name: Nitrogen
  id: 45c8c9c739e7b131496b9fd2deb94bff
  Z: 7
  valence: 5
  core: 2
  charge: 0.0
  file: /app/gpaw/datasets/N.PBE
  cutoffs: 0.58(comp), 1.11(filt), 0.96(core), lmax=2
  valence states:
                energy  radius
    2s(2.00)   -18.583   0.603
    2p(3.00)    -7.089   0.529
    *s           8.629   0.603
    *p          20.123   0.529
    *d           0.000   0.577

  LCAO basis set for N:
    Name: dzp
    File: /app/gpaw/datasets/N.dzp.basis
    Number of radial functions: 5
    Number of spherical harmonics: 13
      l=0, rc=4.8594 Bohr: 2s-sz confined orbital
      l=1, rc=6.0625 Bohr: 2p-sz confined orbital
      l=0, rc=2.6094 Bohr: 2s-dz split-valence wave
      l=1, rc=3.2656 Bohr: 2p-dz split-valence wave
      l=2, rc=6.0625 Bohr: d-type Gaussian polarization

C-setup:
  name: Carbon
  id: 2f012631b351e3618121587a96c50fca
  Z: 6
  valence: 4
  core: 2
  charge: 0.0
  file: /app/gpaw/datasets/C.PBE
  cutoffs: 0.64(comp), 1.14(filt), 1.14(core), lmax=2
  valence states:
                energy  radius
    2s(2.00)   -13.751   0.635
    2p(2.00)    -5.285   0.635
    *s          13.461   0.635
    *p          21.927   0.635
    *d           0.000   0.635

  LCAO basis set for C:
    Name: dzp
    File: /app/gpaw/datasets/C.dzp.basis
    Number of radial functions: 5
    Number of spherical harmonics: 13
      l=0, rc=5.5938 Bohr: 2s-sz confined orbital
      l=1, rc=6.8750 Bohr: 2p-sz confined orbital
      l=0, rc=3.0938 Bohr: 2s-dz split-valence wave
      l=1, rc=3.8125 Bohr: 2p-dz split-valence wave
      l=2, rc=6.8750 Bohr: d-type Gaussian polarization

Reference energy: -412395.464894

Spin-paired calculation

Occupation numbers:
  Fermi-Dirac: width=0.0000 eV

Convergence criteria:
  Maximum total energy change: 0.0005 eV / electron
  Maximum integral of absolute density change: 0.0001 electrons
  Maximum integral of absolute eigenstate change: 4e-08 eV^2
  Maximum number of iterations: 150

Symmetries present (total): 1

  ( 1  0  0)
  ( 0  1  0)
  ( 0  0  1)

1 k-point (Gamma)
1 k-point in the irreducible part of the Brillouin zone
       k-points in crystal coordinates                weights
   0:     0.00000000    0.00000000    0.00000000          1/1

Wave functions: Uniform real-space grid
  Kinetic energy operator: 6*3+1=19 point O(h^6) finite-difference Laplacian
  ScaLapack parameters: grid=1x1, blocksize=None 

Eigensolver
   CG(niter=4, rtol=3.0e-01) 

Densities:
  Coarse grid: 48*40*40 grid
  Fine grid: 96*80*80 grid
  Total Charge: 0.000000 

Density mixing:
  Method: separate
  Backend: pulay
  Linear mixing parameter: 0.25
  Mixing with 3 old densities
  No damping of long wave oscillations 

Hamiltonian:
  XC and Coulomb potentials evaluated on a 96*80*80 grid
  Using the M06-L Exchange-Correlation functional
  Interpolation: tri-quintic (5. degree polynomial)
  Poisson solver: Jacobi solver with 5 multi-grid levels
    Coarsest grid: 6 x 5 x 5 points
    Stencil: 6*3+1=19 point O(h^6) finite-difference Laplacian
    Max iterations: 1000
    Tolerance: 2.000000e-10 

Memory estimate:
  Process memory now: 41.72 MiB
  Calculator: 83.17 MiB
    Density: 32.74 MiB
      Arrays: 14.66 MiB
      Localized functions: 14.81 MiB
      Mixer: 3.27 MiB
    Hamiltonian: 22.66 MiB
      Arrays: 9.59 MiB
      XC: 1.09 MiB
      Poisson: 10.98 MiB
      vbar: 0.99 MiB
    Wavefunctions: 27.77 MiB
      Arrays psit_nG: 11.45 MiB
      Eigensolver: 14.18 MiB
      Projections: 0.01 MiB
      Projectors: 2.13 MiB

Total number of cores used: 1

Number of atoms: 3
Number of atomic orbitals: 53
Number of bands in calculation: 21
Bands to converge: occupied states only
Number of valence electrons: 21

... initialized

Initializing position-dependent things.

Density initialized from atomic densities
Creating initial wave functions:
  21 bands from LCAO basis set

     .-----------------.  
    /|                 |  
   / |                 |  
  /  |                 |  
 *   |                 |  
 |   |                 |  
 |   |  N   Hf  C      |  
 |   |                 |  
 |   .-----------------.  
 |  /                 /   
 | /                 /    
 |/                 /     
 *-----------------*      

Positions:
   0 Hf     3.730000    3.300000    3.250000    ( 0.0000,  0.0000,  0.0000)
   1 N      1.920000    3.200000    3.250000    ( 0.0000,  0.0000,  0.0000)
   2 C      5.580000    3.200000    3.250000    ( 0.0000,  0.0000,  0.0000)

Unit cell:
           periodic     x           y           z      points  spacing
  1. axis:    no     7.500000    0.000000    0.000000    48     0.1562
  2. axis:    no     0.000000    6.500000    0.000000    40     0.1625
  3. axis:    no     0.000000    0.000000    6.500000    40     0.1625

  Lengths:   7.500000   6.500000   6.500000
  Angles:   90.000000  90.000000  90.000000

Effective grid spacing dv^(1/3) = 0.1604

                     log10-error:    total        iterations:
           time      wfs    density  energy       fermi  poisson
iter:   1  12:29:11  +2.97   +inf  -341.046814    0      15     
iter:   2  12:29:12  +2.75   +inf  -606.972243    0             
iter:   3  12:29:13  +2.11   +inf  -668.784292    0             
iter:   4  12:29:23  +2.87  -0.14     5.400017    0      13     
iter:   5  12:29:33  +2.77  -0.28   -15.989501    0      11     
iter:   6  12:29:43  +2.47  -0.45   -14.585017    0      11     
iter:   7  12:29:53  +1.55  -0.54   -19.726641    0      12     
iter:   8  12:30:02  +1.05  -0.64   -22.282913    0      11     
iter:   9  12:30:12  +0.67  -0.74   -20.515325    0      11     
iter:  10  12:30:22  +0.29  -1.01   -19.940447    0      8      
iter:  11  12:30:32  -0.29  -1.21   -20.124327    0      9      
iter:  12  12:30:41  -0.76  -1.32   -20.201572    0      7      
iter:  13  12:30:51  -0.75  -1.35   -20.239922    0      8      
iter:  14  12:31:00  -0.54  -1.40   -20.224684    0      7      
iter:  15  12:31:10  -0.94  -1.48   -20.225908    0      6      
iter:  16  12:31:19  -1.20  -1.50   -20.227029    0      6      
iter:  17  12:31:28  -1.01  -1.49   -20.227129    0      5      
iter:  18  12:31:38  -1.31  -1.52   -20.227716    0      5      
iter:  19  12:31:47  -1.08  -1.51   -20.234560    0      5      
iter:  20  12:31:56  -1.05  -1.53   -20.237868    0      5      
iter:  21  12:32:05  -1.18  -1.53   -20.236793    0      4      
iter:  22  12:32:14  -1.16  -1.54   -20.238941    0      4      
iter:  23  12:32:23  -1.23  -1.53   -20.237438    0      3      
iter:  24  12:32:32  -1.37  -1.54   -20.239195    0      4      
iter:  25  12:32:41  -1.11  -1.53   -20.239825    0      3      
iter:  26  12:32:50  -1.10  -1.55   -20.242467    0      5      
iter:  27  12:32:59  -1.18  -1.53   -20.242309    0      3      
iter:  28  12:33:08  -1.21  -1.55   -20.241866    0      2      
iter:  29  12:33:17  -1.27  -1.53   -20.242457    0      2      
iter:  30  12:33:26  -1.13  -1.55   -20.242501    0      1      
iter:  31  12:33:35  -1.16  -1.53   -20.242310    0      3      
iter:  32  12:33:44  -1.17  -1.55   -20.242355    0      3      
iter:  33  12:33:53  -1.36  -1.53   -20.242997    0      3      
iter:  34  12:34:02  -1.19  -1.55   -20.242550    0      2      
iter:  35  12:34:11  -1.18  -1.53   -20.243252    0      3      
iter:  36  12:34:20  -1.15  -1.55   -20.242684    0      2      
iter:  37  12:34:28  -1.26  -1.53   -20.243013    0      2      
iter:  38  12:34:37  -1.21  -1.55   -20.242697    0      1      
iter:  39  12:34:46  -1.14  -1.53   -20.243266    0      2      
iter:  40  12:34:55  -1.19  -1.55   -20.242566    0      1      
iter:  41  12:35:04  -1.46  -1.53   -20.243258    0      2      
iter:  42  12:35:13  -1.12  -1.55   -20.243018    0      1      
iter:  43  12:35:21  -1.19  -1.53   -20.243253    0      2      
iter:  44  12:35:30  -1.17  -1.55   -20.242633    0      1      
iter:  45  12:35:39  -1.21  -1.53   -20.243181    0      1      
iter:  46  12:35:48  -1.20  -1.55   -20.242628    0      1      
iter:  47  12:35:57  -1.21  -1.53   -20.243168    0      1      
iter:  48  12:36:05  -1.18  -1.55   -20.242902    0      1      
iter:  49  12:36:14  -1.26  -1.53   -20.243212    0      1      
iter:  50  12:36:23  -1.19  -1.55   -20.242779    0      1      
iter:  51  12:36:32  -1.23  -1.53   -20.243422    0      1      
iter:  52  12:36:41  -1.20  -1.55   -20.242691    0      1      
iter:  53  12:36:49  -1.30  -1.53   -20.243416    0      1      
iter:  54  12:36:58  -1.12  -1.55   -20.243004    0      1      
iter:  55  12:37:07  -1.19  -1.53   -20.243199    0      1      
iter:  56  12:37:16  -1.17  -1.55   -20.242702    0      1      
iter:  57  12:37:24  -1.21  -1.53   -20.243196    0      1      
iter:  58  12:37:33  -1.21  -1.55   -20.242649    0      1      
iter:  59  12:37:42  -1.34  -1.53   -20.243375    0      1      
iter:  60  12:37:51  -1.12  -1.55   -20.243062    0      1      
iter:  61  12:38:00  -1.25  -1.53   -20.243401    0      1      
iter:  62  12:38:08  -1.16  -1.55   -20.242769    0      1      
iter:  63  12:38:17  -1.15  -1.53   -20.243273    0      1      
iter:  64  12:38:26  -1.20  -1.55   -20.242574    0      1      
iter:  65  12:38:35  -1.30  -1.53   -20.243233    0      1      
iter:  66  12:38:44  -1.15  -1.55   -20.242996    0      1      
iter:  67  12:38:52  -1.18  -1.53   -20.243277    0      1      
iter:  68  12:39:01  -1.22  -1.55   -20.242699    0      1      
iter:  69  12:39:10  -1.32  -1.53   -20.243504    0      1      
iter:  70  12:39:19  -1.19  -1.55   -20.242801    0      1      
iter:  71  12:39:28  -1.19  -1.53   -20.243491    0      1      
iter:  72  12:39:37  -1.13  -1.55   -20.242908    0      1      
iter:  73  12:39:46  -1.30  -1.53   -20.243223    0      1      
iter:  74  12:39:55  -1.16  -1.55   -20.242767    0      1      
iter:  75  12:40:04  -1.13  -1.53   -20.243243    0      1      
iter:  76  12:40:13  -1.24  -1.55   -20.242622    0      1      
iter:  77  12:40:22  -1.46  -1.53   -20.243539    0      1      
iter:  78  12:40:31  -1.14  -1.55   -20.243098    0      1      
iter:  79  12:40:40  -1.17  -1.53   -20.243431    0      1      
iter:  80  12:40:48  -1.17  -1.55   -20.242734    0      1      
iter:  81  12:40:57  -1.21  -1.53   -20.243227    0      1      
iter:  82  12:41:06  -1.19  -1.55   -20.242651    0      1      
iter:  83  12:41:15  -1.37  -1.53   -20.243412    0      1      
iter:  84  12:41:24  -1.12  -1.55   -20.243046    0      1      
iter:  85  12:41:33  -1.25  -1.53   -20.243407    0      1      
iter:  86  12:41:42  -1.16  -1.55   -20.242803    0      1      
iter:  87  12:41:51  -1.13  -1.53   -20.243263    0      1      
iter:  88  12:42:00  -1.20  -1.55   -20.242550    0      1      
iter:  89  12:42:09  -1.51  -1.53   -20.243379    0      1      
iter:  90  12:42:18  -1.12  -1.55   -20.243129    0      1      
iter:  91  12:42:27  -1.17  -1.53   -20.243472    0      1      
iter:  92  12:42:36  -1.17  -1.55   -20.242689    0      1      
iter:  93  12:42:45  -1.21  -1.53   -20.243258    0      1      
iter:  94  12:42:54  -1.20  -1.55   -20.242631    0      1      
iter:  95  12:43:03  -1.34  -1.53   -20.243367    0      1      
iter:  96  12:43:13  -1.14  -1.55   -20.243020    0      1      
iter:  97  12:43:22  -1.25  -1.53   -20.243456    0      1      
iter:  98  12:43:31  -1.16  -1.55   -20.242773    0      1      
iter:  99  12:43:40  -1.13  -1.53   -20.243298    0      1      
iter: 100  12:43:49  -1.20  -1.55   -20.242558    0      1      
iter: 101  12:43:59  -1.47  -1.53   -20.243353    0      1      
iter: 102  12:44:08  -1.12  -1.55   -20.243078    0      1      
iter: 103  12:44:17  -1.17  -1.53   -20.243439    0      1      
iter: 104  12:44:26  -1.17  -1.55   -20.242625    0      1      
iter: 105  12:44:35  -1.21  -1.53   -20.243210    0      1      
iter: 106  12:44:45  -1.20  -1.55   -20.242618    0      1      
iter: 107  12:44:54  -1.35  -1.53   -20.243369    0      1      
iter: 108  12:45:03  -1.13  -1.55   -20.242963    0      1      
iter: 109  12:45:12  -1.26  -1.53   -20.243386    0      1      
iter: 110  12:45:21  -1.16  -1.55   -20.242732    0      1      
iter: 111  12:45:31  -1.14  -1.53   -20.243238    0      1      
iter: 112  12:45:40  -1.20  -1.55   -20.242512    0      1      
iter: 113  12:45:49  -1.48  -1.53   -20.243349    0      1      
iter: 114  12:45:58  -1.12  -1.55   -20.243062    0      1      
iter: 115  12:46:07  -1.17  -1.53   -20.243416    0      1      
iter: 116  12:46:17  -1.17  -1.55   -20.242641    0      1      
iter: 117  12:46:26  -1.21  -1.53   -20.243220    0      1      
iter: 118  12:46:35  -1.20  -1.55   -20.242597    0      1      
iter: 119  12:46:44  -1.35  -1.53   -20.243381    0      1      
iter: 120  12:46:53  -1.13  -1.55   -20.242981    0      1      
iter: 121  12:47:02  -1.26  -1.53   -20.243382    0      1      
iter: 122  12:47:12  -1.16  -1.55   -20.242727    0      1      
iter: 123  12:47:21  -1.14  -1.53   -20.243255    0      1      
iter: 124  12:47:30  -1.20  -1.55   -20.242516    0      1      
iter: 125  12:47:39  -1.42  -1.53   -20.243270    0      1      
iter: 126  12:47:49  -1.17  -1.55   -20.243088    0      1      
iter: 127  12:47:58  -1.19  -1.53   -20.243467    0      1      
iter: 128  12:48:07  -1.16  -1.55   -20.242663    0      1      
iter: 129  12:48:16  -1.22  -1.53   -20.243235    0      1      
iter: 130  12:48:25  -1.20  -1.55   -20.242631    0      1      
iter: 131  12:48:35  -1.22  -1.53   -20.243220    0      1      
iter: 132  12:48:44  -1.18  -1.55   -20.242935    0      1      
iter: 133  12:48:53  -1.27  -1.53   -20.243355    0      1      
iter: 134  12:49:02  -1.15  -1.55   -20.242740    0      1      
iter: 135  12:49:11  -1.14  -1.53   -20.243236    0      1      
iter: 136  12:49:20  -1.21  -1.55   -20.242561    0      1      
iter: 137  12:49:30  -1.31  -1.53   -20.243184    0      1      
iter: 138  12:49:39  -1.18  -1.55   -20.243015    0      1      
iter: 139  12:49:48  -1.19  -1.53   -20.243351    0      1      
iter: 140  12:49:57  -1.16  -1.55   -20.242689    0      1      
iter: 141  12:50:06  -1.22  -1.53   -20.243190    0      1      
iter: 142  12:50:16  -1.20  -1.55   -20.242682    0      1      
iter: 143  12:50:25  -1.22  -1.53   -20.243215    0      1      
iter: 144  12:50:34  -1.18  -1.55   -20.242950    0      1      
iter: 145  12:50:43  -1.27  -1.53   -20.243307    0      1      
iter: 146  12:50:52  -1.15  -1.55   -20.242786    0      1      
iter: 147  12:51:02  -1.14  -1.53   -20.243215    0      1      
iter: 148  12:51:11  -1.21  -1.55   -20.242575    0      1      
iter: 149  12:51:20  -1.31  -1.53   -20.243185    0      1      
iter: 150  12:51:29  -1.18  -1.55   -20.243046    0      1      

Did not converge!

Here are some tips:

1) Make sure the geometry and spin-state is physically sound.
2) Use less aggressive density mixing.
3) Solve the eigenvalue problem more accurately at each scf-step.
4) Use a smoother distribution function for the occupation numbers.
5) Try adding more empty states.
6) Use enough k-points.
7) Don't let your structure optimization algorithm take too large steps.
8) Solve the Poisson equation more accurately.
9) Better initial guess for the wave functions.

See details here:

    https://wiki.fysik.dtu.dk/gpaw/documentation/convergence.html


Timing:                              incl.     excl.
-----------------------------------------------------------
Hamiltonian:                        10.432     0.000   0.0% |
 Atomic:                             2.752     0.001   0.0% |
  XC Correction:                     2.751     2.751   0.2% |
 Calculate atomic Hamiltonians:      0.004     0.004   0.0% |
 Communicate:                        0.000     0.000   0.0% |
 Hartree integrate/restrict:         0.006     0.006   0.0% |
 Initialize Hamiltonian:             0.000     0.000   0.0% |
 Poisson:                            1.393     1.393   0.1% |
 XC 3D grid:                         6.274     6.274   0.5% |
 vbar:                               0.002     0.002   0.0% |
LCAO initialization:                 3.362     2.381   0.2% |
 LCAO eigensolver:                   0.060     0.000   0.0% |
  Calculate projections:             0.000     0.000   0.0% |
  DenseAtomicCorrection:             0.000     0.000   0.0% |
  Distribute overlap matrix:         0.000     0.000   0.0% |
  Orbital Layouts:                   0.001     0.001   0.0% |
  Potential matrix:                  0.058     0.058   0.0% |
 LCAO to grid:                       0.105     0.105   0.0% |
 Set positions (LCAO WFS):           0.816     0.000   0.0% |
  Basic WFS set positions:           0.000     0.000   0.0% |
  Basis functions set positions:     0.000     0.000   0.0% |
  TCI: Calculate S, T, P:            0.816     0.816   0.1% |
SCF-cycle:                        1348.252     0.068   0.0% |
 CG:                               110.669    28.254   2.1% ||
  Apply hamiltonian:                29.983    29.983   2.2% ||
  CG: orthonormalize:               14.498     7.457   0.5% |
   CG: overlap:                      6.704     6.704   0.5% |
   CG: overlap2:                     0.337     0.337   0.0% |
  Subspace diag:                    37.934     0.012   0.0% |
   calc_h_matrix:                   28.045     4.548   0.3% |
    Apply hamiltonian:              23.496    23.496   1.7% ||
   diagonalize:                      0.036     0.036   0.0% |
   rotate_psi:                       9.841     9.841   0.7% |
 Density:                            3.062     0.003   0.0% |
  Atomic density matrices:           0.101     0.101   0.0% |
  Mix:                               2.135     2.135   0.2% |
  Multipole moments:                 0.027     0.027   0.0% |
  Pseudo density:                    0.795     0.793   0.1% |
   Symmetrize density:               0.002     0.002   0.0% |
 Hamiltonian:                     1234.406     0.017   0.0% |
  Atomic:                          246.394     0.139   0.0% |
   XC Correction:                  246.255   246.255  18.1% |------|
  Calculate atomic Hamiltonians:     0.626     0.626   0.0% |
  Communicate:                       0.001     0.001   0.0% |
  Hartree integrate/restrict:        1.199     1.199   0.1% |
  Poisson:                          29.709    29.709   2.2% ||
  XC 3D grid:                      956.239   956.239  70.2% |---------------------------|
  vbar:                              0.220     0.220   0.0% |
 Orthonormalize:                     0.046     0.000   0.0% |
  calc_s_matrix:                     0.015     0.015   0.0% |
  inverse-cholesky:                  0.000     0.000   0.0% |
  projections:                       0.013     0.013   0.0% |
  rotate_psi_s:                      0.018     0.018   0.0% |
Set symmetry:                        0.001     0.001   0.0% |
Other:                               1.047     1.047   0.1% |
-----------------------------------------------------------
Total:                                      1363.093 100.0%

Memory usage: 346.66 MiB
Date: Fri Sep 14 12:51:38 2018
