
  ___ ___ ___ _ _ _  
 |   |   |_  | | | | 
 | | | | | . | | | | 
 |__ |  _|___|_____|  1.4.0
 |___|_|             

User:   ???@93e7e28806d8
Date:   Fri Aug 17 01:00:08 2018
Arch:   x86_64
Pid:    115
Python: 3.7.0
gpaw:   /app/gpaw/software/venv/lib/python3.7/site-packages/gpaw
_gpaw:  /app/gpaw/software/venv/lib/python3.7/site-packages/
        _gpaw.cpython-37m-x86_64-linux-gnu.so
ase:    /app/gpaw/software/venv/lib/python3.7/site-packages/ase (version 3.16.2)
numpy:  /app/gpaw/software/venv/lib/python3.7/site-packages/numpy (version 1.15.0)
scipy:  /app/gpaw/software/venv/lib/python3.7/site-packages/scipy (version 1.1.0)
units:  Angstrom and eV
cores:  1

Input parameters:
  eigensolver: cg
  gpts: [56 40 40]
  maxiter: 150
  mixer: {backend: pulay,
          beta: None,
          method: separate,
          nmaxold: None,
          weight: None}
  xc: M06-L

System changes: positions, numbers, cell, pbc, initial_charges, initial_magmoms 

Initialize ...

Hf-setup:
  name: Hafnium
  id: d03a45b6fa1dd7f07e443d1513edf499
  Z: 72
  valence: 12
  core: 60
  charge: 0.0
  file: /app/gpaw/datasets/Hf.PBE
  cutoffs: 1.30(comp), 2.36(filt), 4.02(core), lmax=2
  valence states:
                energy  radius
    5s(2.00)   -66.831   1.397
    6s(2.00)    -5.097   1.397
    5p(6.00)   -35.599   1.307
    6p(0.00)    -1.401   1.307
    5d(2.00)    -2.699   1.334
    *d          24.513   1.334

  Using partial waves for Hf as LCAO basis

N-setup:
  name: Nitrogen
  id: 45c8c9c739e7b131496b9fd2deb94bff
  Z: 7
  valence: 5
  core: 2
  charge: 0.0
  file: /app/gpaw/datasets/N.PBE
  cutoffs: 0.58(comp), 1.11(filt), 0.96(core), lmax=2
  valence states:
                energy  radius
    2s(2.00)   -18.583   0.603
    2p(3.00)    -7.089   0.529
    *s           8.629   0.603
    *p          20.123   0.529
    *d           0.000   0.577

  Using partial waves for N as LCAO basis

C-setup:
  name: Carbon
  id: 2f012631b351e3618121587a96c50fca
  Z: 6
  valence: 4
  core: 2
  charge: 0.0
  file: /app/gpaw/datasets/C.PBE
  cutoffs: 0.64(comp), 1.14(filt), 1.14(core), lmax=2
  valence states:
                energy  radius
    2s(2.00)   -13.751   0.635
    2p(2.00)    -5.285   0.635
    *s          13.461   0.635
    *p          21.927   0.635
    *d           0.000   0.635

  Using partial waves for C as LCAO basis

Reference energy: -412395.464894

Spin-paired calculation

Occupation numbers:
  Fermi-Dirac: width=0.0000 eV

Convergence criteria:
  Maximum total energy change: 0.0005 eV / electron
  Maximum integral of absolute density change: 0.0001 electrons
  Maximum integral of absolute eigenstate change: 4e-08 eV^2
  Maximum number of iterations: 150

Symmetries present (total): 1

  ( 1  0  0)
  ( 0  1  0)
  ( 0  0  1)

1 k-point (Gamma)
1 k-point in the irreducible part of the Brillouin zone
       k-points in crystal coordinates                weights
   0:     0.00000000    0.00000000    0.00000000          1/1

Wave functions: Uniform real-space grid
  Kinetic energy operator: 6*3+1=19 point O(h^6) finite-difference Laplacian
  ScaLapack parameters: grid=1x1, blocksize=None 

Eigensolver
   CG(niter=4, rtol=3.0e-01) 

Densities:
  Coarse grid: 56*40*40 grid
  Fine grid: 112*80*80 grid
  Total Charge: 0.000000 

Density mixing:
  Method: separate
  Backend: pulay
  Linear mixing parameter: 0.25
  Mixing with 3 old densities
  No damping of long wave oscillations 

Hamiltonian:
  XC and Coulomb potentials evaluated on a 112*80*80 grid
  Using the M06-L Exchange-Correlation functional
  Interpolation: tri-quintic (5. degree polynomial)
  Poisson solver: Jacobi solver with 5 multi-grid levels
    Coarsest grid: 7 x 5 x 5 points
    Stencil: 6*3+1=19 point O(h^6) finite-difference Laplacian
    Max iterations: 1000
    Tolerance: 2.000000e-10 

Memory estimate:
  Process memory now: 41.53 MiB
  Calculator: 94.74 MiB
    Density: 36.21 MiB
      Arrays: 17.13 MiB
      Localized functions: 15.24 MiB
      Mixer: 3.83 MiB
    Hamiltonian: 26.34 MiB
      Arrays: 11.21 MiB
      XC: 1.28 MiB
      Poisson: 12.83 MiB
      vbar: 1.02 MiB
    Wavefunctions: 32.19 MiB
      Arrays psit_nG: 13.40 MiB
      Eigensolver: 16.59 MiB
      Projections: 0.01 MiB
      Projectors: 2.19 MiB

Total number of cores used: 1

Number of atoms: 3
Number of atomic orbitals: 21
Number of bands in calculation: 21
Bands to converge: occupied states only
Number of valence electrons: 21

... initialized

Initializing position-dependent things.

Density initialized from atomic densities
Creating initial wave functions:
  21 bands from LCAO basis set

     .--------------------.  
    /|                    |  
   / |                    |  
  /  |                    |  
 *   |                    |  
 |   |                    |  
 |   |    N  Hf  C        |  
 |   |                    |  
 |   .--------------------.  
 |  /                    /   
 | /                    /    
 |/                    /     
 *--------------------*      

Positions:
   0 Hf     4.100000    3.250000    3.250000    ( 0.0000,  0.0000,  0.0000)
   1 N      2.800000    3.250000    3.250000    ( 0.0000,  0.0000,  0.0000)
   2 C      5.700000    3.250000    3.250000    ( 0.0000,  0.0000,  0.0000)

Unit cell:
           periodic     x           y           z      points  spacing
  1. axis:    no     8.500000    0.000000    0.000000    56     0.1518
  2. axis:    no     0.000000    6.500000    0.000000    40     0.1625
  3. axis:    no     0.000000    0.000000    6.500000    40     0.1625

  Lengths:   8.500000   6.500000   6.500000
  Angles:   90.000000  90.000000  90.000000

Effective grid spacing dv^(1/3) = 0.1588

                     log10-error:    total        iterations:
           time      wfs    density  energy       fermi  poisson
iter:   1  01:00:25  +3.40   +inf  -514.191528    0      15     
iter:   2  01:00:26  +3.47   +inf  -1004.765082    0             
iter:   3  01:00:27  +3.30   +inf  -1192.856853    0             
iter:   4  01:00:39  +3.64  +0.07    37.618562    0      13     
iter:   5  01:00:50  +3.08  -0.20    40.151288    0      11     
iter:   6  01:01:01  +2.55  -0.38   -32.563561    0      11     
iter:   7  01:01:13  +1.78  -0.36   -27.540034    0      11     
iter:   8  01:01:24  +1.13  -0.36   -23.047809    0      11     
iter:   9  01:01:35  +1.00  -0.42    -7.465210    0      9      
iter:  10  01:01:46  +0.68  -0.65    -5.980198    0      10     
iter:  11  01:01:57  +0.00  -0.97    -6.236350    0      8      
iter:  12  01:02:08  -0.53  -1.10    -6.447070    0      8      
iter:  13  01:02:19  -0.49  -1.15    -6.643406    0      8      
iter:  14  01:02:30  -0.98  -1.46    -6.641098    0      6      
iter:  15  01:02:41  -1.10  -1.48    -6.653484    0      6      
iter:  16  01:02:51  -1.17  -1.51    -6.658579    0      5      
iter:  17  01:03:02  -1.09  -1.51    -6.661014    0      5      
iter:  18  01:03:12  -1.24  -1.52    -6.665765    0      5      
iter:  19  01:03:23  -1.05  -1.52    -6.668538    0      4      
iter:  20  01:03:33  -1.11  -1.53    -6.671891    0      4      
iter:  21  01:03:43  -1.15  -1.53    -6.674910    0      4      
iter:  22  01:03:54  -1.11  -1.54    -6.676711    0      4      
iter:  23  01:04:04  -1.18  -1.53    -6.680200    0      4      
iter:  24  01:04:14  -1.20  -1.54    -6.680760    0      4      
iter:  25  01:04:25  -1.21  -1.54    -6.685903    0      5      
iter:  26  01:04:35  -1.09  -1.54    -6.682244    0      4      
iter:  27  01:04:45  -1.23  -1.54    -6.686311    0      4      
iter:  28  01:04:56  -1.14  -1.54    -6.687497    0      4      
iter:  29  01:05:06  -1.57  -1.54    -6.693784    0      5      
iter:  30  01:05:16  -1.13  -1.55    -6.692610    0      4      
iter:  31  01:05:27  -1.11  -1.54    -6.692583    0      4      
iter:  32  01:05:37  -1.16  -1.55    -6.693429    0      3      
iter:  33  01:05:47  -1.23  -1.54    -6.692902    0      2      
iter:  34  01:05:57  -1.23  -1.55    -6.695860    0      4      
iter:  35  01:06:08  -1.27  -1.54    -6.693623    0      4      
iter:  36  01:06:18  -1.24  -1.55    -6.695631    0      4      
iter:  37  01:06:28  -1.14  -1.54    -6.695047    0      2      
iter:  38  01:06:38  -1.21  -1.55    -6.694877    0      3      
iter:  39  01:06:48  -1.22  -1.55    -6.695521    0      4      
iter:  40  01:06:58  -1.17  -1.55    -6.696246    0      2      
iter:  41  01:07:09  -1.14  -1.55    -6.697243    0      4      
iter:  42  01:07:19  -1.32  -1.55    -6.697350    0      4      
iter:  43  01:07:29  -1.22  -1.54    -6.697386    0      4      
iter:  44  01:07:39  -1.20  -1.55    -6.698259    0      2      
iter:  45  01:07:50  -1.30  -1.54    -6.698198    0      3      
iter:  46  01:08:00  -1.15  -1.55    -6.698991    0      3      
iter:  47  01:08:10  -1.14  -1.55    -6.698088    0      3      
iter:  48  01:08:20  -1.41  -1.55    -6.699052    0      1      
iter:  49  01:08:30  -1.16  -1.55    -6.698900    0      4      
iter:  50  01:08:41  -1.15  -1.55    -6.698933    0      3      
iter:  51  01:08:51  -1.33  -1.55    -6.698628    0      3      
iter:  52  01:09:01  -1.16  -1.55    -6.699847    0      3      
iter:  53  01:09:11  -1.20  -1.55    -6.698554    0      3      
iter:  54  01:09:21  -1.33  -1.55    -6.699724    0      3      
iter:  55  01:09:31  -1.17  -1.55    -6.698894    0      1      
iter:  56  01:09:41  -1.15  -1.55    -6.699512    0      2      
iter:  57  01:09:52  -1.43  -1.55    -6.699025    0      3      
iter:  58  01:10:02  -1.21  -1.55    -6.700421    0      1      
iter:  59  01:10:12  -1.12  -1.55    -6.699557    0      4      
iter:  60  01:10:22  -1.32  -1.55    -6.699862    0      4      
iter:  61  01:10:33  -1.17  -1.55    -6.699483    0      4      
iter:  62  01:10:43  -1.14  -1.55    -6.700104    0      3      
iter:  63  01:10:53  -1.41  -1.55    -6.699294    0      3      
iter:  64  01:11:03  -1.17  -1.55    -6.700429    0      3      
iter:  65  01:11:13  -1.15  -1.55    -6.699421    0      1      
iter:  66  01:11:23  -1.34  -1.55    -6.700091    0      3      
iter:  67  01:11:33  -1.17  -1.55    -6.699500    0      3      
iter:  68  01:11:44  -1.20  -1.55    -6.700196    0      2      
iter:  69  01:11:54  -1.42  -1.55    -6.699825    0      4      
iter:  70  01:12:04  -1.15  -1.55    -6.700994    0      3      
iter:  71  01:12:14  -1.13  -1.55    -6.699630    0      3      
iter:  72  01:12:24  -1.32  -1.55    -6.700572    0      3      
iter:  73  01:12:35  -1.22  -1.55    -6.699706    0      3      
iter:  74  01:12:45  -1.14  -1.55    -6.700446    0      2      
iter:  75  01:12:55  -1.33  -1.55    -6.699561    0      1      
iter:  76  01:13:05  -1.17  -1.55    -6.700675    0      2      
iter:  77  01:13:15  -1.15  -1.55    -6.699479    0      2      
iter:  78  01:13:25  -1.41  -1.55    -6.700553    0      2      
iter:  79  01:13:35  -1.17  -1.55    -6.699781    0      2      
iter:  80  01:13:45  -1.14  -1.55    -6.700462    0      2      
iter:  81  01:13:55  -1.43  -1.55    -6.699763    0      1      
iter:  82  01:14:05  -1.16  -1.55    -6.701098    0      2      
iter:  83  01:14:15  -1.18  -1.55    -6.699849    0      2      
iter:  84  01:14:25  -1.32  -1.55    -6.700717    0      2      
iter:  85  01:14:35  -1.17  -1.55    -6.699863    0      1      
iter:  86  01:14:45  -1.15  -1.55    -6.700503    0      2      
iter:  87  01:14:55  -1.33  -1.55    -6.699675    0      1      
iter:  88  01:15:05  -1.22  -1.55    -6.700823    0      2      
iter:  89  01:15:15  -1.15  -1.55    -6.699688    0      1      
iter:  90  01:15:25  -1.33  -1.55    -6.700645    0      2      
iter:  91  01:15:35  -1.17  -1.55    -6.699836    0      1      
iter:  92  01:15:45  -1.14  -1.55    -6.700508    0      2      
iter:  93  01:15:55  -1.41  -1.55    -6.699720    0      1      
iter:  94  01:16:05  -1.23  -1.55    -6.700994    0      1      
iter:  95  01:16:15  -1.13  -1.55    -6.700056    0      2      
iter:  96  01:16:25  -1.30  -1.55    -6.700841    0      1      
iter:  97  01:16:36  -1.16  -1.55    -6.699918    0      2      
iter:  98  01:16:46  -1.20  -1.55    -6.700628    0      1      
iter:  99  01:16:56  -1.33  -1.55    -6.699744    0      1      
iter: 100  01:17:05  -1.17  -1.55    -6.700898    0      1      
iter: 101  01:17:15  -1.15  -1.55    -6.699666    0      1      
iter: 102  01:17:25  -1.33  -1.55    -6.700602    0      1      
iter: 103  01:17:35  -1.22  -1.55    -6.699842    0      1      
iter: 104  01:17:45  -1.14  -1.55    -6.700587    0      1      
iter: 105  01:17:55  -1.33  -1.55    -6.699719    0      1      
iter: 106  01:18:05  -1.23  -1.55    -6.701001    0      1      
iter: 107  01:18:15  -1.13  -1.55    -6.700054    0      1      
iter: 108  01:18:25  -1.38  -1.55    -6.700892    0      1      
iter: 109  01:18:35  -1.16  -1.55    -6.699949    0      1      
iter: 110  01:18:45  -1.14  -1.55    -6.700645    0      1      
iter: 111  01:18:55  -1.33  -1.55    -6.699711    0      1      
iter: 112  01:19:05  -1.17  -1.55    -6.700899    0      1      
iter: 113  01:19:15  -1.20  -1.55    -6.699689    0      1      
iter: 114  01:19:25  -1.33  -1.55    -6.700701    0      1      
iter: 115  01:19:35  -1.17  -1.55    -6.699837    0      1      
iter: 116  01:19:45  -1.15  -1.55    -6.700594    0      1      
iter: 117  01:19:55  -1.33  -1.55    -6.699676    0      1      
iter: 118  01:20:05  -1.29  -1.55    -6.701058    0      1      
iter: 119  01:20:15  -1.13  -1.55    -6.700108    0      1      
iter: 120  01:20:25  -1.30  -1.55    -6.700937    0      1      
iter: 121  01:20:35  -1.17  -1.55    -6.699890    0      1      
iter: 122  01:20:45  -1.14  -1.55    -6.700644    0      1      
iter: 123  01:20:55  -1.41  -1.55    -6.699736    0      1      
iter: 124  01:21:05  -1.17  -1.55    -6.700977    0      1      
iter: 125  01:21:15  -1.15  -1.55    -6.699702    0      1      
iter: 126  01:21:25  -1.33  -1.55    -6.700685    0      1      
iter: 127  01:21:35  -1.17  -1.55    -6.699809    0      1      
iter: 128  01:21:44  -1.20  -1.55    -6.700607    0      1      
iter: 129  01:21:54  -1.33  -1.55    -6.699768    0      1      
iter: 130  01:22:04  -1.23  -1.55    -6.701054    0      1      
iter: 131  01:22:14  -1.14  -1.55    -6.700067    0      1      
iter: 132  01:22:24  -1.30  -1.55    -6.700899    0      1      
iter: 133  01:22:34  -1.22  -1.55    -6.699922    0      1      
iter: 134  01:22:44  -1.14  -1.55    -6.700712    0      1      
iter: 135  01:22:54  -1.33  -1.55    -6.699749    0      1      
iter: 136  01:23:04  -1.17  -1.55    -6.700936    0      1      
iter: 137  01:23:14  -1.15  -1.55    -6.699672    0      1      
iter: 138  01:23:24  -1.41  -1.55    -6.700723    0      1      
iter: 139  01:23:34  -1.17  -1.55    -6.699870    0      1      
iter: 140  01:23:44  -1.14  -1.55    -6.700615    0      1      
iter: 141  01:23:54  -1.33  -1.55    -6.699716    0      1      
iter: 142  01:24:04  -1.23  -1.55    -6.701029    0      1      
iter: 143  01:24:14  -1.18  -1.55    -6.700073    0      1      
iter: 144  01:24:24  -1.30  -1.55    -6.700982    0      1      
iter: 145  01:24:34  -1.16  -1.55    -6.699907    0      1      
iter: 146  01:24:44  -1.15  -1.55    -6.700678    0      1      
iter: 147  01:24:54  -1.33  -1.55    -6.699706    0      1      
iter: 148  01:25:04  -1.22  -1.55    -6.700976    0      1      
iter: 149  01:25:14  -1.15  -1.55    -6.699735    0      1      
iter: 150  01:25:24  -1.33  -1.55    -6.700735    0      1      

Did not converge!

Here are some tips:

1) Make sure the geometry and spin-state is physically sound.
2) Use less aggressive density mixing.
3) Solve the eigenvalue problem more accurately at each scf-step.
4) Use a smoother distribution function for the occupation numbers.
5) Try adding more empty states.
6) Use enough k-points.
7) Don't let your structure optimization algorithm take too large steps.
8) Solve the Poisson equation more accurately.
9) Better initial guess for the wave functions.

See details here:

    https://wiki.fysik.dtu.dk/gpaw/documentation/convergence.html


Timing:                              incl.     excl.
-----------------------------------------------------------
Hamiltonian:                        13.315     0.000   0.0% |
 Atomic:                             4.253     0.001   0.0% |
  XC Correction:                     4.252     4.252   0.3% |
 Calculate atomic Hamiltonians:      0.004     0.004   0.0% |
 Communicate:                        0.000     0.000   0.0% |
 Hartree integrate/restrict:         0.009     0.009   0.0% |
 Initialize Hamiltonian:             0.000     0.000   0.0% |
 Poisson:                            1.734     1.734   0.1% |
 XC 3D grid:                         7.312     7.312   0.5% |
 vbar:                               0.003     0.003   0.0% |
LCAO initialization:                 0.686     0.587   0.0% |
 LCAO eigensolver:                   0.031     0.000   0.0% |
  Calculate projections:             0.000     0.000   0.0% |
  DenseAtomicCorrection:             0.000     0.000   0.0% |
  Distribute overlap matrix:         0.000     0.000   0.0% |
  Orbital Layouts:                   0.000     0.000   0.0% |
  Potential matrix:                  0.030     0.030   0.0% |
 LCAO to grid:                       0.064     0.064   0.0% |
 Set positions (LCAO WFS):           0.005     0.000   0.0% |
  Basic WFS set positions:           0.000     0.000   0.0% |
  Basis functions set positions:     0.000     0.000   0.0% |
  TCI: Calculate S, T, P:            0.004     0.004   0.0% |
SCF-cycle:                        1510.222     0.072   0.0% |
 CG:                               124.120    31.307   2.1% ||
  Apply hamiltonian:                34.245    34.245   2.2% ||
  CG: orthonormalize:               15.938     8.419   0.6% |
   CG: overlap:                      7.168     7.168   0.5% |
   CG: overlap2:                     0.351     0.351   0.0% |
  Subspace diag:                    42.632     0.012   0.0% |
   calc_h_matrix:                   31.400     4.787   0.3% |
    Apply hamiltonian:              26.613    26.613   1.7% ||
   diagonalize:                      0.035     0.035   0.0% |
   rotate_psi:                      11.184    11.184   0.7% |
 Density:                            3.369     0.003   0.0% |
  Atomic density matrices:           0.100     0.100   0.0% |
  Mix:                               2.346     2.346   0.2% |
  Multipole moments:                 0.026     0.026   0.0% |
  Pseudo density:                    0.894     0.892   0.1% |
   Symmetrize density:               0.002     0.002   0.0% |
 Hamiltonian:                     1382.606     0.016   0.0% |
  Atomic:                          240.336     0.135   0.0% |
   XC Correction:                  240.201   240.201  15.7% |-----|
  Calculate atomic Hamiltonians:     0.630     0.630   0.0% |
  Communicate:                       0.001     0.001   0.0% |
  Hartree integrate/restrict:        1.364     1.364   0.1% |
  Poisson:                          46.177    46.177   3.0% ||
  XC 3D grid:                     1093.850  1093.850  71.7% |----------------------------|
  vbar:                              0.231     0.231   0.0% |
 Orthonormalize:                     0.055     0.000   0.0% |
  calc_s_matrix:                     0.017     0.017   0.0% |
  inverse-cholesky:                  0.000     0.000   0.0% |
  projections:                       0.014     0.014   0.0% |
  rotate_psi_s:                      0.023     0.023   0.0% |
Set symmetry:                        0.001     0.001   0.0% |
Other:                               1.031     1.031   0.1% |
-----------------------------------------------------------
Total:                                      1525.255 100.0%

Memory usage: 357.17 MiB
Date: Fri Aug 17 01:25:33 2018
