
  ___ ___ ___ _ _ _  
 |   |   |_  | | | | 
 | | | | | . | | | | 
 |__ |  _|___|_____|  1.4.0
 |___|_|             

User:   ???@93e7e28806d8
Date:   Mon Aug 20 20:33:29 2018
Arch:   x86_64
Pid:    151
Python: 3.7.0
gpaw:   /app/gpaw/software/venv/lib/python3.7/site-packages/gpaw
_gpaw:  /app/gpaw/software/venv/lib/python3.7/site-packages/
        _gpaw.cpython-37m-x86_64-linux-gnu.so
ase:    /app/gpaw/software/venv/lib/python3.7/site-packages/ase (version 3.16.2)
numpy:  /app/gpaw/software/venv/lib/python3.7/site-packages/numpy (version 1.15.0)
scipy:  /app/gpaw/software/venv/lib/python3.7/site-packages/scipy (version 1.1.0)
units:  Angstrom and eV
cores:  1

Input parameters:
  eigensolver: cg
  gpts: [56 40 40]
  maxiter: 150
  mixer: {backend: pulay,
          beta: None,
          method: separate,
          nmaxold: None,
          weight: None}
  xc: M06-L

System changes: positions, numbers, cell, pbc, initial_charges, initial_magmoms 

Initialize ...

Hf-setup:
  name: Hafnium
  id: d03a45b6fa1dd7f07e443d1513edf499
  Z: 72
  valence: 12
  core: 60
  charge: 0.0
  file: /app/gpaw/datasets/Hf.PBE
  cutoffs: 1.30(comp), 2.36(filt), 4.02(core), lmax=2
  valence states:
                energy  radius
    5s(2.00)   -66.831   1.397
    6s(2.00)    -5.097   1.397
    5p(6.00)   -35.599   1.307
    6p(0.00)    -1.401   1.307
    5d(2.00)    -2.699   1.334
    *d          24.513   1.334

  Using partial waves for Hf as LCAO basis

N-setup:
  name: Nitrogen
  id: 45c8c9c739e7b131496b9fd2deb94bff
  Z: 7
  valence: 5
  core: 2
  charge: 0.0
  file: /app/gpaw/datasets/N.PBE
  cutoffs: 0.58(comp), 1.11(filt), 0.96(core), lmax=2
  valence states:
                energy  radius
    2s(2.00)   -18.583   0.603
    2p(3.00)    -7.089   0.529
    *s           8.629   0.603
    *p          20.123   0.529
    *d           0.000   0.577

  Using partial waves for N as LCAO basis

C-setup:
  name: Carbon
  id: 2f012631b351e3618121587a96c50fca
  Z: 6
  valence: 4
  core: 2
  charge: 0.0
  file: /app/gpaw/datasets/C.PBE
  cutoffs: 0.64(comp), 1.14(filt), 1.14(core), lmax=2
  valence states:
                energy  radius
    2s(2.00)   -13.751   0.635
    2p(2.00)    -5.285   0.635
    *s          13.461   0.635
    *p          21.927   0.635
    *d           0.000   0.635

  Using partial waves for C as LCAO basis

Reference energy: -412395.464894

Spin-paired calculation

Occupation numbers:
  Fermi-Dirac: width=0.0000 eV

Convergence criteria:
  Maximum total energy change: 0.0005 eV / electron
  Maximum integral of absolute density change: 0.0001 electrons
  Maximum integral of absolute eigenstate change: 4e-08 eV^2
  Maximum number of iterations: 150

Symmetries present (total): 1

  ( 1  0  0)
  ( 0  1  0)
  ( 0  0  1)

1 k-point (Gamma)
1 k-point in the irreducible part of the Brillouin zone
       k-points in crystal coordinates                weights
   0:     0.00000000    0.00000000    0.00000000          1/1

Wave functions: Uniform real-space grid
  Kinetic energy operator: 6*3+1=19 point O(h^6) finite-difference Laplacian
  ScaLapack parameters: grid=1x1, blocksize=None 

Eigensolver
   CG(niter=4, rtol=3.0e-01) 

Densities:
  Coarse grid: 56*40*40 grid
  Fine grid: 112*80*80 grid
  Total Charge: 0.000000 

Density mixing:
  Method: separate
  Backend: pulay
  Linear mixing parameter: 0.25
  Mixing with 3 old densities
  No damping of long wave oscillations 

Hamiltonian:
  XC and Coulomb potentials evaluated on a 112*80*80 grid
  Using the M06-L Exchange-Correlation functional
  Interpolation: tri-quintic (5. degree polynomial)
  Poisson solver: Jacobi solver with 5 multi-grid levels
    Coarsest grid: 7 x 5 x 5 points
    Stencil: 6*3+1=19 point O(h^6) finite-difference Laplacian
    Max iterations: 1000
    Tolerance: 2.000000e-10 

Memory estimate:
  Process memory now: 41.50 MiB
  Calculator: 94.74 MiB
    Density: 36.21 MiB
      Arrays: 17.13 MiB
      Localized functions: 15.24 MiB
      Mixer: 3.83 MiB
    Hamiltonian: 26.34 MiB
      Arrays: 11.21 MiB
      XC: 1.28 MiB
      Poisson: 12.83 MiB
      vbar: 1.02 MiB
    Wavefunctions: 32.19 MiB
      Arrays psit_nG: 13.40 MiB
      Eigensolver: 16.59 MiB
      Projections: 0.01 MiB
      Projectors: 2.19 MiB

Total number of cores used: 1

Number of atoms: 3
Number of atomic orbitals: 21
Number of bands in calculation: 21
Bands to converge: occupied states only
Number of valence electrons: 21

... initialized

Initializing position-dependent things.

Density initialized from atomic densities
Creating initial wave functions:
  21 bands from LCAO basis set

     .--------------------.  
    /|                    |  
   / |                    |  
  /  |                    |  
 *   |                    |  
 |   |                    |  
 |   |   N    Hf  C       |  
 |   |                    |  
 |   .--------------------.  
 |  /                    /   
 | /                    /    
 |/                    /     
 *--------------------*      

Positions:
   0 Hf     4.330000    3.350000    3.250000    ( 0.0000,  0.0000,  0.0000)
   1 N      2.520000    3.150000    3.250000    ( 0.0000,  0.0000,  0.0000)
   2 C      5.980000    3.150000    3.250000    ( 0.0000,  0.0000,  0.0000)

Unit cell:
           periodic     x           y           z      points  spacing
  1. axis:    no     8.500000    0.000000    0.000000    56     0.1518
  2. axis:    no     0.000000    6.500000    0.000000    40     0.1625
  3. axis:    no     0.000000    0.000000    6.500000    40     0.1625

  Lengths:   8.500000   6.500000   6.500000
  Angles:   90.000000  90.000000  90.000000

Effective grid spacing dv^(1/3) = 0.1588

                     log10-error:    total        iterations:
           time      wfs    density  energy       fermi  poisson
iter:   1  20:33:46  +3.09   +inf  -558.332360    0      16     
iter:   2  20:33:48  +3.43   +inf  -989.143751    0             
iter:   3  20:33:49  +2.96   +inf  -1162.915980    0             
iter:   4  20:34:02  +3.21  +0.03   -85.458553    0      13     
iter:   5  20:34:14  +2.77  -0.21   -18.208559    0      11     
iter:   6  20:34:27  +2.49  -0.45   -18.159602    0      11     
iter:   7  20:34:39  +1.83  -0.48   -40.137583    0      12     
iter:   8  20:34:52  +1.56  -0.45   -18.428800    0      11     
iter:   9  20:35:04  +0.74  -0.70   -20.280539    0      10     
iter:  10  20:35:16  +0.63  -0.84   -20.496496    0      10     
iter:  11  20:35:28  +0.54  -0.94   -19.799387    0      9      
iter:  12  20:35:40  +0.16  -1.26   -19.771784    0      8      
iter:  13  20:35:52  -0.65  -1.28   -19.685642    0      7      
iter:  14  20:36:04  -0.83  -1.40   -19.757543    0      7      
iter:  15  20:36:15  -0.93  -1.37   -19.759042    0      7      
iter:  16  20:36:27  -1.11  -1.53   -19.781707    0      6      
iter:  17  20:36:39  -1.00  -1.42   -19.766600    0      6      
iter:  18  20:36:50  -1.03  -1.58   -19.776980    0      5      
iter:  19  20:37:02  -1.22  -1.44   -19.763562    0      4      
iter:  20  20:37:13  -1.12  -1.60   -19.777840    0      5      
iter:  21  20:37:24  -1.15  -1.46   -19.770843    0      5      
iter:  22  20:37:36  -1.21  -1.62   -19.782387    0      5      
iter:  23  20:37:47  -1.12  -1.46   -19.774805    0      4      
iter:  24  20:37:58  -1.25  -1.63   -19.782981    0      3      
iter:  25  20:38:09  -1.54  -1.46   -19.775011    0      3      
iter:  26  20:38:21  -1.15  -1.63   -19.783981    0      4      
iter:  27  20:38:32  -1.27  -1.46   -19.776827    0      3      
iter:  28  20:38:43  -1.22  -1.64   -19.784075    0      4      
iter:  29  20:38:54  -1.21  -1.46   -19.778400    0      3      
iter:  30  20:39:05  -1.25  -1.64   -19.784387    0      3      
iter:  31  20:39:16  -1.27  -1.46   -19.778346    0      3      
iter:  32  20:39:27  -1.18  -1.64   -19.784089    0      3      
iter:  33  20:39:38  -1.23  -1.46   -19.778530    0      1      
iter:  34  20:39:49  -1.45  -1.64   -19.784148    0      3      
iter:  35  20:40:00  -1.18  -1.46   -19.779170    0      1      
iter:  36  20:40:11  -1.22  -1.64   -19.784119    0      3      
iter:  37  20:40:22  -1.43  -1.46   -19.779211    0      2      
iter:  38  20:40:33  -1.17  -1.64   -19.783994    0      1      
iter:  39  20:40:44  -1.26  -1.46   -19.779350    0      2      
iter:  40  20:40:55  -1.31  -1.64   -19.784047    0      2      
iter:  41  20:41:06  -1.18  -1.46   -19.779531    0      1      
iter:  42  20:41:17  -1.22  -1.64   -19.783675    0      2      
iter:  43  20:41:28  -1.43  -1.46   -19.779438    0      1      
iter:  44  20:41:38  -1.27  -1.64   -19.783859    0      1      
iter:  45  20:41:49  -1.21  -1.46   -19.779626    0      2      
iter:  46  20:42:00  -1.28  -1.64   -19.783862    0      1      
iter:  47  20:42:11  -1.19  -1.46   -19.779636    0      1      
iter:  48  20:42:22  -1.26  -1.64   -19.783591    0      2      
iter:  49  20:42:33  -1.38  -1.46   -19.779699    0      1      
iter:  50  20:42:44  -1.17  -1.64   -19.783821    0      1      
iter:  51  20:42:54  -1.22  -1.46   -19.779620    0      1      
iter:  52  20:43:05  -1.31  -1.64   -19.783638    0      1      
iter:  53  20:43:16  -1.19  -1.46   -19.779744    0      1      
iter:  54  20:43:27  -1.38  -1.64   -19.783527    0      1      
iter:  55  20:43:37  -1.31  -1.46   -19.779804    0      1      
iter:  56  20:43:48  -1.15  -1.64   -19.783700    0      1      
iter:  57  20:43:59  -1.23  -1.46   -19.779641    0      1      
iter:  58  20:44:10  -1.30  -1.64   -19.783542    0      1      
iter:  59  20:44:21  -1.32  -1.46   -19.779979    0      1      
iter:  60  20:44:31  -1.21  -1.64   -19.783587    0      1      
iter:  61  20:44:43  -1.30  -1.46   -19.779870    0      1      
iter:  62  20:44:53  -1.18  -1.64   -19.783534    0      1      
iter:  63  20:45:04  -1.23  -1.46   -19.779723    0      1      
iter:  64  20:45:15  -1.44  -1.64   -19.783509    0      1      
iter:  65  20:45:26  -1.27  -1.46   -19.780088    0      1      
iter:  66  20:45:37  -1.20  -1.64   -19.783456    0      1      
iter:  67  20:45:47  -1.31  -1.46   -19.779930    0      1      
iter:  68  20:45:58  -1.18  -1.64   -19.783405    0      1      
iter:  69  20:46:09  -1.28  -1.46   -19.779838    0      1      
iter:  70  20:46:20  -1.36  -1.64   -19.783622    0      1      
iter:  71  20:46:31  -1.18  -1.46   -19.780215    0      1      
iter:  72  20:46:42  -1.21  -1.64   -19.783163    0      1      
iter:  73  20:46:53  -1.33  -1.46   -19.779817    0      1      
iter:  74  20:47:03  -1.28  -1.64   -19.783421    0      1      
iter:  75  20:47:14  -1.22  -1.46   -19.779863    0      1      
iter:  76  20:47:25  -1.33  -1.64   -19.783552    0      1      
iter:  77  20:47:36  -1.19  -1.46   -19.780167    0      1      
iter:  78  20:47:47  -1.21  -1.64   -19.783141    0      1      
iter:  79  20:47:58  -1.39  -1.46   -19.779887    0      1      
iter:  80  20:48:08  -1.18  -1.64   -19.783520    0      1      
iter:  81  20:48:19  -1.22  -1.46   -19.779850    0      1      
iter:  82  20:48:30  -1.34  -1.64   -19.783370    0      1      
iter:  83  20:48:41  -1.18  -1.46   -19.780115    0      1      
iter:  84  20:48:52  -1.36  -1.64   -19.783208    0      1      
iter:  85  20:49:02  -1.42  -1.46   -19.780074    0      1      
iter:  86  20:49:13  -1.16  -1.64   -19.783527    0      1      
iter:  87  20:49:24  -1.21  -1.46   -19.780034    0      1      
iter:  88  20:49:35  -1.31  -1.64   -19.783315    0      1      
iter:  89  20:49:46  -1.24  -1.46   -19.780094    0      1      
iter:  90  20:49:56  -1.22  -1.64   -19.783298    0      1      
iter:  91  20:50:07  -1.42  -1.46   -19.779957    0      1      
iter:  92  20:50:18  -1.18  -1.64   -19.783315    0      1      
iter:  93  20:50:29  -1.21  -1.46   -19.780076    0      1      
iter:  94  20:50:40  -1.45  -1.64   -19.783332    0      1      
iter:  95  20:50:51  -1.19  -1.46   -19.780144    0      1      
iter:  96  20:51:01  -1.24  -1.64   -19.783276    0      1      
iter:  97  20:51:12  -1.32  -1.46   -19.779966    0      1      
iter:  98  20:51:23  -1.17  -1.64   -19.783231    0      1      
iter:  99  20:51:34  -1.28  -1.46   -19.779929    0      1      
iter: 100  20:51:44  -1.31  -1.64   -19.783439    0      1      
iter: 101  20:51:55  -1.18  -1.46   -19.780089    0      1      
iter: 102  20:52:05  -1.26  -1.64   -19.783125    0      1      
iter: 103  20:52:15  -1.31  -1.46   -19.779971    0      1      
iter: 104  20:52:25  -1.27  -1.64   -19.783308    0      1      
iter: 105  20:52:35  -1.23  -1.46   -19.779942    0      1      
iter: 106  20:52:46  -1.28  -1.64   -19.783418    0      1      
iter: 107  20:52:56  -1.27  -1.46   -19.780132    0      1      
iter: 108  20:53:06  -1.21  -1.64   -19.783159    0      1      
iter: 109  20:53:16  -1.37  -1.46   -19.780076    0      1      
iter: 110  20:53:27  -1.18  -1.64   -19.783460    0      1      
iter: 111  20:53:37  -1.22  -1.46   -19.779936    0      1      
iter: 112  20:53:47  -1.31  -1.64   -19.783248    0      1      
iter: 113  20:53:57  -1.27  -1.46   -19.780166    0      1      
iter: 114  20:54:07  -1.32  -1.64   -19.783193    0      1      
iter: 115  20:54:18  -1.30  -1.46   -19.780113    0      1      
iter: 116  20:54:28  -1.16  -1.64   -19.783407    0      1      
iter: 117  20:54:38  -1.23  -1.46   -19.779896    0      1      
iter: 118  20:54:49  -1.35  -1.64   -19.783258    0      1      
iter: 119  20:54:59  -1.23  -1.46   -19.780358    0      1      
iter: 120  20:55:09  -1.21  -1.64   -19.783184    0      1      
iter: 121  20:55:19  -1.32  -1.46   -19.779973    0      1      
iter: 122  20:55:30  -1.18  -1.64   -19.783229    0      1      
iter: 123  20:55:40  -1.22  -1.46   -19.779872    0      1      
iter: 124  20:55:50  -1.52  -1.64   -19.783347    0      1      
iter: 125  20:56:01  -1.18  -1.46   -19.780351    0      1      
iter: 126  20:56:11  -1.19  -1.64   -19.783156    0      1      
iter: 127  20:56:21  -1.33  -1.46   -19.779898    0      1      
iter: 128  20:56:31  -1.18  -1.64   -19.783206    0      1      
iter: 129  20:56:42  -1.28  -1.46   -19.779920    0      1      
iter: 130  20:56:52  -1.34  -1.64   -19.783443    0      1      
iter: 131  20:57:02  -1.17  -1.46   -19.780208    0      1      
iter: 132  20:57:13  -1.25  -1.64   -19.783056    0      1      
iter: 133  20:57:23  -1.42  -1.46   -19.780054    0      1      
iter: 134  20:57:33  -1.27  -1.64   -19.783339    0      1      
iter: 135  20:57:44  -1.21  -1.46   -19.780149    0      1      
iter: 136  20:57:54  -1.29  -1.64   -19.783385    0      1      
iter: 137  20:58:04  -1.19  -1.46   -19.780077    0      1      
iter: 138  20:58:15  -1.21  -1.64   -19.783048    0      1      
iter: 139  20:58:25  -1.52  -1.46   -19.780006    0      1      
iter: 140  20:58:35  -1.17  -1.64   -19.783445    0      1      
iter: 141  20:58:46  -1.21  -1.46   -19.780172    0      1      
iter: 142  20:58:56  -1.31  -1.64   -19.783230    0      1      
iter: 143  20:59:06  -1.19  -1.46   -19.780097    0      1      
iter: 144  20:59:17  -1.38  -1.64   -19.783152    0      1      
iter: 145  20:59:27  -1.31  -1.46   -19.780104    0      1      
iter: 146  20:59:37  -1.15  -1.64   -19.783357    0      1      
iter: 147  20:59:47  -1.23  -1.46   -19.779908    0      1      
iter: 148  20:59:58  -1.30  -1.64   -19.783215    0      1      
iter: 149  21:00:08  -1.23  -1.46   -19.780129    0      1      
iter: 150  21:00:18  -1.26  -1.64   -19.783266    0      1      

Did not converge!

Here are some tips:

1) Make sure the geometry and spin-state is physically sound.
2) Use less aggressive density mixing.
3) Solve the eigenvalue problem more accurately at each scf-step.
4) Use a smoother distribution function for the occupation numbers.
5) Try adding more empty states.
6) Use enough k-points.
7) Don't let your structure optimization algorithm take too large steps.
8) Solve the Poisson equation more accurately.
9) Better initial guess for the wave functions.

See details here:

    https://wiki.fysik.dtu.dk/gpaw/documentation/convergence.html


Timing:                              incl.     excl.
-----------------------------------------------------------
Hamiltonian:                        12.777     0.000   0.0% |
 Atomic:                             2.969     0.001   0.0% |
  XC Correction:                     2.968     2.968   0.2% |
 Calculate atomic Hamiltonians:      0.005     0.005   0.0% |
 Communicate:                        0.000     0.000   0.0% |
 Hartree integrate/restrict:         0.015     0.015   0.0% |
 Initialize Hamiltonian:             0.000     0.000   0.0% |
 Poisson:                            2.066     2.066   0.1% |
 XC 3D grid:                         7.717     7.717   0.5% |
 vbar:                               0.005     0.005   0.0% |
LCAO initialization:                 0.753     0.647   0.0% |
 LCAO eigensolver:                   0.032     0.000   0.0% |
  Calculate projections:             0.000     0.000   0.0% |
  DenseAtomicCorrection:             0.000     0.000   0.0% |
  Distribute overlap matrix:         0.000     0.000   0.0% |
  Orbital Layouts:                   0.000     0.000   0.0% |
  Potential matrix:                  0.031     0.031   0.0% |
 LCAO to grid:                       0.068     0.068   0.0% |
 Set positions (LCAO WFS):           0.006     0.000   0.0% |
  Basic WFS set positions:           0.000     0.000   0.0% |
  Basis functions set positions:     0.000     0.000   0.0% |
  TCI: Calculate S, T, P:            0.005     0.005   0.0% |
SCF-cycle:                        1604.307     0.080   0.0% |
 CG:                               154.284    37.392   2.3% ||
  Apply hamiltonian:                39.729    39.729   2.5% ||
  CG: orthonormalize:               22.061    11.491   0.7% |
   CG: overlap:                     10.180    10.180   0.6% |
   CG: overlap2:                     0.390     0.390   0.0% |
  Subspace diag:                    55.102     0.013   0.0% |
   calc_h_matrix:                   38.749     7.762   0.5% |
    Apply hamiltonian:              30.987    30.987   1.9% ||
   diagonalize:                      0.038     0.038   0.0% |
   rotate_psi:                      16.302    16.302   1.0% |
 Density:                            4.399     0.003   0.0% |
  Atomic density matrices:           0.106     0.106   0.0% |
  Mix:                               3.215     3.215   0.2% |
  Multipole moments:                 0.028     0.028   0.0% |
  Pseudo density:                    1.046     1.043   0.1% |
   Symmetrize density:               0.003     0.003   0.0% |
 Hamiltonian:                     1445.475     0.019   0.0% |
  Atomic:                          257.870     0.145   0.0% |
   XC Correction:                  257.725   257.725  15.9% |-----|
  Calculate atomic Hamiltonians:     0.670     0.670   0.0% |
  Communicate:                       0.001     0.001   0.0% |
  Hartree integrate/restrict:        1.821     1.821   0.1% |
  Poisson:                          41.357    41.357   2.6% ||
  XC 3D grid:                     1143.348  1143.348  70.6% |---------------------------|
  vbar:                              0.389     0.389   0.0% |
 Orthonormalize:                     0.070     0.000   0.0% |
  calc_s_matrix:                     0.023     0.023   0.0% |
  inverse-cholesky:                  0.000     0.000   0.0% |
  projections:                       0.014     0.014   0.0% |
  rotate_psi_s:                      0.032     0.032   0.0% |
Set symmetry:                        0.001     0.001   0.0% |
Other:                               1.145     1.145   0.1% |
-----------------------------------------------------------
Total:                                      1618.984 100.0%

Memory usage: 357.38 MiB
Date: Mon Aug 20 21:00:28 2018
