
  ___ ___ ___ _ _ _  
 |   |   |_  | | | | 
 | | | | | . | | | | 
 |__ |  _|___|_____|  1.4.0
 |___|_|             

User:   ???@93e7e28806d8
Date:   Mon Aug 13 17:53:37 2018
Arch:   x86_64
Pid:    54
Python: 3.7.0
gpaw:   /app/gpaw/software/venv/lib/python3.7/site-packages/gpaw
_gpaw:  /app/gpaw/software/venv/lib/python3.7/site-packages/
        _gpaw.cpython-37m-x86_64-linux-gnu.so
ase:    /app/gpaw/software/venv/lib/python3.7/site-packages/ase (version 3.16.2)
numpy:  /app/gpaw/software/venv/lib/python3.7/site-packages/numpy (version 1.15.0)
scipy:  /app/gpaw/software/venv/lib/python3.7/site-packages/scipy (version 1.1.0)
units:  Angstrom and eV
cores:  1

Input parameters:
  gpts: [56 40 40]
  maxiter: 100
  mixer: {backend: pulay,
          beta: None,
          method: separate,
          nmaxold: None,
          weight: None}
  xc: M06-L

System changes: positions, numbers, cell, pbc, initial_charges, initial_magmoms 

Initialize ...

Hf-setup:
  name: Hafnium
  id: d03a45b6fa1dd7f07e443d1513edf499
  Z: 72
  valence: 12
  core: 60
  charge: 0.0
  file: /app/gpaw/datasets/Hf.PBE
  cutoffs: 1.30(comp), 2.36(filt), 4.02(core), lmax=2
  valence states:
                energy  radius
    5s(2.00)   -66.831   1.397
    6s(2.00)    -5.097   1.397
    5p(6.00)   -35.599   1.307
    6p(0.00)    -1.401   1.307
    5d(2.00)    -2.699   1.334
    *d          24.513   1.334

  Using partial waves for Hf as LCAO basis

N-setup:
  name: Nitrogen
  id: 45c8c9c739e7b131496b9fd2deb94bff
  Z: 7
  valence: 5
  core: 2
  charge: 0.0
  file: /app/gpaw/datasets/N.PBE
  cutoffs: 0.58(comp), 1.11(filt), 0.96(core), lmax=2
  valence states:
                energy  radius
    2s(2.00)   -18.583   0.603
    2p(3.00)    -7.089   0.529
    *s           8.629   0.603
    *p          20.123   0.529
    *d           0.000   0.577

  Using partial waves for N as LCAO basis

C-setup:
  name: Carbon
  id: 2f012631b351e3618121587a96c50fca
  Z: 6
  valence: 4
  core: 2
  charge: 0.0
  file: /app/gpaw/datasets/C.PBE
  cutoffs: 0.64(comp), 1.14(filt), 1.14(core), lmax=2
  valence states:
                energy  radius
    2s(2.00)   -13.751   0.635
    2p(2.00)    -5.285   0.635
    *s          13.461   0.635
    *p          21.927   0.635
    *d           0.000   0.635

  Using partial waves for C as LCAO basis

Reference energy: -412395.464894

Spin-paired calculation

Occupation numbers:
  Fermi-Dirac: width=0.0000 eV

Convergence criteria:
  Maximum total energy change: 0.0005 eV / electron
  Maximum integral of absolute density change: 0.0001 electrons
  Maximum integral of absolute eigenstate change: 4e-08 eV^2
  Maximum number of iterations: 100

Symmetries present (total): 1

  ( 1  0  0)
  ( 0  1  0)
  ( 0  0  1)

1 k-point (Gamma)
1 k-point in the irreducible part of the Brillouin zone
       k-points in crystal coordinates                weights
   0:     0.00000000    0.00000000    0.00000000          1/1

Wave functions: Uniform real-space grid
  Kinetic energy operator: 6*3+1=19 point O(h^6) finite-difference Laplacian
  ScaLapack parameters: grid=1x1, blocksize=None 

Eigensolver
   Davidson(niter=1, smin=None, normalize=True) 

Densities:
  Coarse grid: 56*40*40 grid
  Fine grid: 112*80*80 grid
  Total Charge: 0.000000 

Density mixing:
  Method: separate
  Backend: pulay
  Linear mixing parameter: 0.25
  Mixing with 3 old densities
  No damping of long wave oscillations 

Hamiltonian:
  XC and Coulomb potentials evaluated on a 112*80*80 grid
  Using the M06-L Exchange-Correlation functional
  Interpolation: tri-quintic (5. degree polynomial)
  Poisson solver: Jacobi solver with 5 multi-grid levels
    Coarsest grid: 7 x 5 x 5 points
    Stencil: 6*3+1=19 point O(h^6) finite-difference Laplacian
    Max iterations: 1000
    Tolerance: 2.000000e-10 

Memory estimate:
  Process memory now: 41.48 MiB
  Calculator: 94.77 MiB
    Density: 36.21 MiB
      Arrays: 17.13 MiB
      Localized functions: 15.24 MiB
      Mixer: 3.83 MiB
    Hamiltonian: 26.34 MiB
      Arrays: 11.21 MiB
      XC: 1.28 MiB
      Poisson: 12.83 MiB
      vbar: 1.02 MiB
    Wavefunctions: 32.23 MiB
      Arrays psit_nG: 13.40 MiB
      Eigensolver: 16.63 MiB
      Projections: 0.01 MiB
      Projectors: 2.19 MiB

Total number of cores used: 1

Number of atoms: 3
Number of atomic orbitals: 21
Number of bands in calculation: 21
Bands to converge: occupied states only
Number of valence electrons: 21

... initialized

Initializing position-dependent things.

Density initialized from atomic densities
Creating initial wave functions:
  21 bands from LCAO basis set

     .--------------------.  
    /|                    |  
   / |                    |  
  /  |                    |  
 *   |                    |  
 |   |                    |  
 |   |    N  Hf  C        |  
 |   |                    |  
 |   .--------------------.  
 |  /                    /   
 | /                    /    
 |/                    /     
 *--------------------*      

Positions:
   0 Hf     4.150000    3.250000    3.250000    ( 0.0000,  0.0000,  0.0000)
   1 N      2.850000    3.250000    3.250000    ( 0.0000,  0.0000,  0.0000)
   2 C      5.650000    3.250000    3.250000    ( 0.0000,  0.0000,  0.0000)

Unit cell:
           periodic     x           y           z      points  spacing
  1. axis:    no     8.500000    0.000000    0.000000    56     0.1518
  2. axis:    no     0.000000    6.500000    0.000000    40     0.1625
  3. axis:    no     0.000000    0.000000    6.500000    40     0.1625

  Lengths:   8.500000   6.500000   6.500000
  Angles:   90.000000  90.000000  90.000000

Effective grid spacing dv^(1/3) = 0.1588

                     log10-error:    total        iterations:
           time      wfs    density  energy       fermi  poisson
iter:   1  17:53:51  +3.10   +inf  -297.265595    0      15     
iter:   2  17:53:52  +3.44   +inf  -536.654769    0             
iter:   3  17:53:53  +3.46   +inf  -685.445930    0             
iter:   4  17:54:04  +2.81  -0.14   -45.134848    0      12     
iter:   5  17:54:15  +2.65  -0.33    -0.343081    0      10     
iter:   6  17:54:27  +2.39  -0.61   -10.354613    0      10     
iter:   7  17:54:38  +1.85  -0.75    -4.951861    0      10     
iter:   8  17:54:49  +1.29  -1.00    -4.888389    0      10     
iter:   9  17:55:00  +1.24  -1.26    -4.667060    0      9      
iter:  10  17:55:11  +0.73  -1.33    -4.823770    0      7      
iter:  11  17:55:21  +0.57  -1.35    -4.881828    0      6      
iter:  12  17:55:32  +0.10  -1.37    -4.887895    0      7      
iter:  13  17:55:43  -0.09  -1.41    -4.878017    0      7      
iter:  14  17:55:54  -0.37  -1.50    -4.885838    0      7      
iter:  15  17:56:04  -0.50  -1.53    -4.892665    0      7      
iter:  16  17:56:15  -0.76  -1.51    -4.888071    0      6      
iter:  17  17:56:26  -0.84  -1.54    -4.893819    0      5      
iter:  18  17:56:36  -0.91  -1.53    -4.895218    0      6      
iter:  19  17:56:47  -1.00  -1.54    -4.895627    0      5      
iter:  20  17:56:57  -1.03  -1.53    -4.898949    0      6      
iter:  21  17:57:08  -1.07  -1.54    -4.897445    0      3      
iter:  22  17:57:18  -1.08  -1.54    -4.902819    0      5      
iter:  23  17:57:29  -1.11  -1.55    -4.898612    0      5      
iter:  24  17:57:39  -1.11  -1.54    -4.903968    0      5      
iter:  25  17:57:50  -1.12  -1.54    -4.899577    0      4      
iter:  26  17:58:00  -1.13  -1.55    -4.899833    0      5      
iter:  27  17:58:11  -1.08  -1.55    -4.901867    0      6      
iter:  28  17:58:22  -1.10  -1.54    -4.902457    0      4      
iter:  29  17:58:32  -1.13  -1.55    -4.902157    0      4      
iter:  30  17:58:43  -1.13  -1.54    -4.904135    0      5      
iter:  31  17:58:53  -1.12  -1.55    -4.904209    0      4      
iter:  32  17:59:03  -1.12  -1.54    -4.904427    0      4      
iter:  33  17:59:14  -1.08  -1.55    -4.909256    0      5      
iter:  34  17:59:24  -1.10  -1.54    -4.904911    0      5      
iter:  35  17:59:35  -1.12  -1.56    -4.907312    0      4      
iter:  36  17:59:45  -1.13  -1.55    -4.905561    0      3      
iter:  37  17:59:56  -1.13  -1.56    -4.907650    0      3      
iter:  38  18:00:06  -1.13  -1.55    -4.905763    0      3      
iter:  39  18:00:16  -1.13  -1.56    -4.907977    0      3      
iter:  40  18:00:27  -1.13  -1.55    -4.906404    0      3      
iter:  41  18:00:37  -1.13  -1.56    -4.907956    0      3      
iter:  42  18:00:47  -1.13  -1.55    -4.906551    0      3      
iter:  43  18:00:57  -1.13  -1.56    -4.908275    0      1      
iter:  44  18:01:08  -1.13  -1.55    -4.906522    0      2      
iter:  45  18:01:18  -1.13  -1.56    -4.908551    0      2      
iter:  46  18:01:28  -1.13  -1.55    -4.906715    0      2      
iter:  47  18:01:38  -1.13  -1.56    -4.908585    0      1      
iter:  48  18:01:49  -1.13  -1.55    -4.906888    0      3      
iter:  49  18:01:59  -1.13  -1.56    -4.908437    0      2      
iter:  50  18:02:09  -1.13  -1.55    -4.906878    0      3      
iter:  51  18:02:19  -1.13  -1.56    -4.908777    0      1      
iter:  52  18:02:29  -1.13  -1.55    -4.906797    0      1      
iter:  53  18:02:39  -1.13  -1.56    -4.908909    0      2      
iter:  54  18:02:50  -1.13  -1.55    -4.906938    0      2      
iter:  55  18:03:00  -1.13  -1.56    -4.908942    0      1      
iter:  56  18:03:10  -1.13  -1.55    -4.907065    0      2      
iter:  57  18:03:20  -1.12  -1.56    -4.909576    0      3      
iter:  58  18:03:31  -1.13  -1.55    -4.906976    0      3      
iter:  59  18:03:41  -1.13  -1.56    -4.909225    0      2      
iter:  60  18:03:51  -1.13  -1.55    -4.907193    0      2      
iter:  61  18:04:01  -1.13  -1.56    -4.909107    0      2      
iter:  62  18:04:12  -1.13  -1.55    -4.907180    0      2      
iter:  63  18:04:22  -1.13  -1.56    -4.909134    0      1      
iter:  64  18:04:32  -1.13  -1.55    -4.907137    0      2      
iter:  65  18:04:42  -1.13  -1.56    -4.909218    0      1      
iter:  66  18:04:52  -1.13  -1.55    -4.907177    0      1      
iter:  67  18:05:02  -1.13  -1.56    -4.909172    0      1      
iter:  68  18:05:12  -1.13  -1.55    -4.907203    0      1      
iter:  69  18:05:22  -1.13  -1.56    -4.909216    0      1      
iter:  70  18:05:33  -1.13  -1.55    -4.907199    0      1      
iter:  71  18:05:43  -1.13  -1.56    -4.909235    0      1      
iter:  72  18:05:53  -1.13  -1.55    -4.907197    0      1      
iter:  73  18:06:03  -1.13  -1.56    -4.909424    0      2      
iter:  74  18:06:13  -1.13  -1.55    -4.907116    0      2      
iter:  75  18:06:23  -1.13  -1.56    -4.909326    0      1      
iter:  76  18:06:33  -1.13  -1.55    -4.907232    0      1      
iter:  77  18:06:43  -1.13  -1.56    -4.909237    0      1      
iter:  78  18:06:54  -1.13  -1.55    -4.907223    0      1      
iter:  79  18:07:04  -1.13  -1.56    -4.909260    0      1      
iter:  80  18:07:14  -1.13  -1.55    -4.907167    0      1      
iter:  81  18:07:24  -1.13  -1.56    -4.909280    0      1      
iter:  82  18:07:34  -1.13  -1.55    -4.907202    0      1      
iter:  83  18:07:44  -1.13  -1.56    -4.909254    0      1      
iter:  84  18:07:54  -1.13  -1.55    -4.907213    0      1      
iter:  85  18:08:04  -1.13  -1.56    -4.909262    0      1      
iter:  86  18:08:14  -1.13  -1.55    -4.907267    0      1      
iter:  87  18:08:25  -1.13  -1.56    -4.909227    0      1      
iter:  88  18:08:35  -1.13  -1.55    -4.907234    0      1      
iter:  89  18:08:45  -1.13  -1.56    -4.909292    0      1      
iter:  90  18:08:55  -1.13  -1.55    -4.907228    0      1      
iter:  91  18:09:05  -1.13  -1.56    -4.909282    0      1      
iter:  92  18:09:15  -1.13  -1.55    -4.907220    0      1      
iter:  93  18:09:25  -1.13  -1.56    -4.909288    0      1      
iter:  94  18:09:35  -1.13  -1.55    -4.907213    0      1      
iter:  95  18:09:45  -1.13  -1.56    -4.909305    0      1      
iter:  96  18:09:56  -1.13  -1.55    -4.907195    0      1      
iter:  97  18:10:06  -1.13  -1.56    -4.909293    0      1      
iter:  98  18:10:16  -1.13  -1.55    -4.907218    0      1      
iter:  99  18:10:26  -1.13  -1.56    -4.909267    0      1      
iter: 100  18:10:36  -1.13  -1.55    -4.907225    0      1      

Did not converge!

Here are some tips:

1) Make sure the geometry and spin-state is physically sound.
2) Use less aggressive density mixing.
3) Solve the eigenvalue problem more accurately at each scf-step.
4) Use a smoother distribution function for the occupation numbers.
5) Try adding more empty states.
6) Use enough k-points.
7) Don't let your structure optimization algorithm take too large steps.
8) Solve the Poisson equation more accurately.
9) Better initial guess for the wave functions.

See details here:

    https://wiki.fysik.dtu.dk/gpaw/documentation/convergence.html


Timing:                              incl.     excl.
-----------------------------------------------------------
Hamiltonian:                        11.779     0.000   0.0% |
 Atomic:                             2.727     0.001   0.0% |
  XC Correction:                     2.726     2.726   0.3% |
 Calculate atomic Hamiltonians:      0.004     0.004   0.0% |
 Communicate:                        0.000     0.000   0.0% |
 Hartree integrate/restrict:         0.009     0.009   0.0% |
 Initialize Hamiltonian:             0.000     0.000   0.0% |
 Poisson:                            1.701     1.701   0.2% |
 XC 3D grid:                         7.335     7.335   0.7% |
 vbar:                               0.003     0.003   0.0% |
LCAO initialization:                 0.678     0.578   0.1% |
 LCAO eigensolver:                   0.032     0.000   0.0% |
  Calculate projections:             0.000     0.000   0.0% |
  DenseAtomicCorrection:             0.000     0.000   0.0% |
  Distribute overlap matrix:         0.000     0.000   0.0% |
  Orbital Layouts:                   0.000     0.000   0.0% |
  Potential matrix:                  0.031     0.031   0.0% |
 LCAO to grid:                       0.063     0.063   0.0% |
 Set positions (LCAO WFS):           0.005     0.000   0.0% |
  Basic WFS set positions:           0.000     0.000   0.0% |
  Basis functions set positions:     0.000     0.000   0.0% |
  TCI: Calculate S, T, P:            0.004     0.004   0.0% |
SCF-cycle:                        1014.978     0.037   0.0% |
 Davidson:                          92.852    10.685   1.0% |
  Apply hamiltonian:                17.485    17.485   1.7% ||
  Subspace diag:                    27.863     0.010   0.0% |
   calc_h_matrix:                   20.609     3.140   0.3% |
    Apply hamiltonian:              17.469    17.469   1.7% ||
   diagonalize:                      0.024     0.024   0.0% |
   rotate_psi:                       7.220     7.220   0.7% |
  calc. matrices:                   29.564    12.075   1.2% |
   Apply hamiltonian:               17.488    17.488   1.7% ||
  diagonalize:                       0.077     0.077   0.0% |
  rotate_psi:                        7.178     7.178   0.7% |
 Density:                            2.359     0.002   0.0% |
  Atomic density matrices:           0.065     0.065   0.0% |
  Mix:                               1.706     1.706   0.2% |
  Multipole moments:                 0.017     0.017   0.0% |
  Pseudo density:                    0.568     0.566   0.1% |
   Symmetrize density:               0.002     0.002   0.0% |
 Hamiltonian:                      919.677     0.010   0.0% |
  Atomic:                          159.287     0.088   0.0% |
   XC Correction:                  159.198   159.198  15.5% |-----|
  Calculate atomic Hamiltonians:     0.424     0.424   0.0% |
  Communicate:                       0.001     0.001   0.0% |
  Hartree integrate/restrict:        0.853     0.853   0.1% |
  Poisson:                          34.205    34.205   3.3% ||
  XC 3D grid:                      724.745   724.745  70.5% |---------------------------|
  vbar:                              0.152     0.152   0.0% |
 Orthonormalize:                     0.054     0.000   0.0% |
  calc_s_matrix:                     0.017     0.017   0.0% |
  inverse-cholesky:                  0.000     0.000   0.0% |
  projections:                       0.014     0.014   0.0% |
  rotate_psi_s:                      0.022     0.022   0.0% |
Set symmetry:                        0.001     0.001   0.0% |
Other:                               1.027     1.027   0.1% |
-----------------------------------------------------------
Total:                                      1028.464 100.0%

Memory usage: 357.76 MiB
Date: Mon Aug 13 18:10:45 2018
